<?xml version="1.0"?>
<VTKFile type="UnstructuredGrid" version="0.1" byte_order="LittleEndian">
  <UnstructuredGrid>
    <Piece NumberOfPoints="231" NumberOfCells="200">
      <Points>
        <DataArray type="Float64" NumberOfComponents="3" format="ascii">
          0 0 0 0.1 0 0 0.2 0 0 0.3 0 0 0.4 0 0 0.5 0 0 0.6 0 0 0.7 0 0 0.8 0 0 0.9 0 0 1 0 0 1.1 0 0 1.2 0 0 1.3 0 0 1.4 0 0 1.5 0 0 1.6 0 0 1.7 0 0 1.8 0 0 1.9 0 0 2 0 0 0 0.1 0 0.1 0.1 0 0.2 0.1 0 0.3 0.1 0 0.4 0.1 0 0.5 0.1 0 0.6 0.1 0 0.7 0.1 0 0.8 0.1 0 0.9 0.1 0 1 0.1 0 1.1 0.1 0 1.2 0.1 0 1.3 0.1 0 1.4 0.1 0 1.5 0.1 0 1.6 0.1 0 1.7 0.1 0 1.8 0.1 0 1.9 0.1 0 2 0.1 0 0 0.2 0 0.1 0.2 0 0.2 0.2 0 0.3 0.2 0 0.4 0.2 0 0.5 0.2 0 0.6 0.2 0 0.7 0.2 0 0.8 0.2 0 0.9 0.2 0 1 0.2 0 1.1 0.2 0 1.2 0.2 0 1.3 0.2 0 1.4 0.2 0 1.5 0.2 0 1.6 0.2 0 1.7 0.2 0 1.8 0.2 0 1.9 0.2 0 2 0.2 0 0 0.3 0 0.1 0.3 0 0.2 0.3 0 0.3 0.3 0 0.4 0.3 0 0.5 0.3 0 0.6 0.3 0 0.7 0.3 0 0.8 0.3 0 0.9 0.3 0 1 0.3 0 1.1 0.3 0 1.2 0.3 0 1.3 0.3 0 1.4 0.3 0 1.5 0.3 0 1.6 0.3 0 1.7 0.3 0 1.8 0.3 0 1.9 0.3 0 2 0.3 0 0 0.4 0 0.1 0.4 0 0.2 0.4 0 0.3 0.4 0 0.4 0.4 0 0.5 0.4 0 0.6 0.4 0 0.7 0.4 0 0.8 0.4 0 0.9 0.4 0 1 0.4 0 1.1 0.4 0 1.2 0.4 0 1.3 0.4 0 1.4 0.4 0 1.5 0.4 0 1.6 0.4 0 1.7 0.4 0 1.8 0.4 0 1.9 0.4 0 2 0.4 0 0 0.5 0 0.1 0.5 0 0.2 0.5 0 0.3 0.5 0 0.4 0.5 0 0.5 0.5 0 0.6 0.5 0 0.7 0.5 0 0.8 0.5 0 0.9 0.5 0 1 0.5 0 1.1 0.5 0 1.2 0.5 0 1.3 0.5 0 1.4 0.5 0 1.5 0.5 0 1.6 0.5 0 1.7 0.5 0 1.8 0.5 0 1.9 0.5 0 2 0.5 0 0 0.6 0 0.1 0.6 0 0.2 0.6 0 0.3 0.6 0 0.4 0.6 0 0.5 0.6 0 0.6 0.6 0 0.7 0.6 0 0.8 0.6 0 0.9 0.6 0 1 0.6 0 1.1 0.6 0 1.2 0.6 0 1.3 0.6 0 1.4 0.6 0 1.5 0.6 0 1.6 0.6 0 1.7 0.6 0 1.8 0.6 0 1.9 0.6 0 2 0.6 0 0 0.7 0 0.1 0.7 0 0.2 0.7 0 0.3 0.7 0 0.4 0.7 0 0.5 0.7 0 0.6 0.7 0 0.7 0.7 0 0.8 0.7 0 0.9 0.7 0 1 0.7 0 1.1 0.7 0 1.2 0.7 0 1.3 0.7 0 1.4 0.7 0 1.5 0.7 0 1.6 0.7 0 1.7 0.7 0 1.8 0.7 0 1.9 0.7 0 2 0.7 0 0 0.8 0 0.1 0.8 0 0.2 0.8 0 0.3 0.8 0 0.4 0.8 0 0.5 0.8 0 0.6 0.8 0 0.7 0.8 0 0.8 0.8 0 0.9 0.8 0 1 0.8 0 1.1 0.8 0 1.2 0.8 0 1.3 0.8 0 1.4 0.8 0 1.5 0.8 0 1.6 0.8 0 1.7 0.8 0 1.8 0.8 0 1.9 0.8 0 2 0.8 0 0 0.9 0 0.1 0.9 0 0.2 0.9 0 0.3 0.9 0 0.4 0.9 0 0.5 0.9 0 0.6 0.9 0 0.7 0.9 0 0.8 0.9 0 0.9 0.9 0 1 0.9 0 1.1 0.9 0 1.2 0.9 0 1.3 0.9 0 1.4 0.9 0 1.5 0.9 0 1.6 0.9 0 1.7 0.9 0 1.8 0.9 0 1.9 0.9 0 2 0.9 0 0 1 0 0.1 1 0 0.2 1 0 0.3 1 0 0.4 1 0 0.5 1 0 0.6 1 0 0.7 1 0 0.8 1 0 0.9 1 0 1 1 0 1.1 1 0 1.2 1 0 1.3 1 0 1.4 1 0 1.5 1 0 1.6 1 0 1.7 1 0 1.8 1 0 1.9 1 0 2 1 0
        </DataArray>
      </Points>
      <Cells>
        <DataArray type="Int32" Name="connectivity" format="ascii">
          0 1 22 21 1 2 23 22 2 3 24 23 3 4 25 24 4 5 26 25 5 6 27 26 6 7 28 27 7 8 29 28 8 9 30 29 9 10 31 30 10 11 32 31 11 12 33 32 12 13 34 33 13 14 35 34 14 15 36 35 15 16 37 36 16 17 38 37 17 18 39 38 18 19 40 39 19 20 41 40 21 22 43 42 22 23 44 43 23 24 45 44 24 25 46 45 25 26 47 46 26 27 48 47 27 28 49 48 28 29 50 49 29 30 51 50 30 31 52 51 31 32 53 52 32 33 54 53 33 34 55 54 34 35 56 55 35 36 57 56 36 37 58 57 37 38 59 58 38 39 60 59 39 40 61 60 40 41 62 61 42 43 64 63 43 44 65 64 44 45 66 65 45 46 67 66 46 47 68 67 47 48 69 68 48 49 70 69 49 50 71 70 50 51 72 71 51 52 73 72 52 53 74 73 53 54 75 74 54 55 76 75 55 56 77 76 56 57 78 77 57 58 79 78 58 59 80 79 59 60 81 80 60 61 82 81 61 62 83 82 63 64 85 84 64 65 86 85 65 66 87 86 66 67 88 87 67 68 89 88 68 69 90 89 69 70 91 90 70 71 92 91 71 72 93 92 72 73 94 93 73 74 95 94 74 75 96 95 75 76 97 96 76 77 98 97 77 78 99 98 78 79 100 99 79 80 101 100 80 81 102 101 81 82 103 102 82 83 104 103 84 85 106 105 85 86 107 106 86 87 108 107 87 88 109 108 88 89 110 109 89 90 111 110 90 91 112 111 91 92 113 112 92 93 114 113 93 94 115 114 94 95 116 115 95 96 117 116 96 97 118 117 97 98 119 118 98 99 120 119 99 100 121 120 100 101 122 121 101 102 123 122 102 103 124 123 103 104 125 124 105 106 127 126 106 107 128 127 107 108 129 128 108 109 130 129 109 110 131 130 110 111 132 131 111 112 133 132 112 113 134 133 113 114 135 134 114 115 136 135 115 116 137 136 116 117 138 137 117 118 139 138 118 119 140 139 119 120 141 140 120 121 142 141 121 122 143 142 122 123 144 143 123 124 145 144 124 125 146 145 126 127 148 147 127 128 149 148 128 129 150 149 129 130 151 150 130 131 152 151 131 132 153 152 132 133 154 153 133 134 155 154 134 135 156 155 135 136 157 156 136 137 158 157 137 138 159 158 138 139 160 159 139 140 161 160 140 141 162 161 141 142 163 162 142 143 164 163 143 144 165 164 144 145 166 165 145 146 167 166 147 148 169 168 148 149 170 169 149 150 171 170 150 151 172 171 151 152 173 172 152 153 174 173 153 154 175 174 154 155 176 175 155 156 177 176 156 157 178 177 157 158 179 178 158 159 180 179 159 160 181 180 160 161 182 181 161 162 183 182 162 163 184 183 163 164 185 184 164 165 186 185 165 166 187 186 166 167 188 187 168 169 190 189 169 170 191 190 170 171 192 191 171 172 193 192 172 173 194 193 173 174 195 194 174 175 196 195 175 176 197 196 176 177 198 197 177 178 199 198 178 179 200 199 179 180 201 200 180 181 202 201 181 182 203 202 182 183 204 203 183 184 205 204 184 185 206 205 185 186 207 206 186 187 208 207 187 188 209 208 189 190 211 210 190 191 212 211 191 192 213 212 192 193 214 213 193 194 215 214 194 195 216 215 195 196 217 216 196 197 218 217 197 198 219 218 198 199 220 219 199 200 221 220 200 201 222 221 201 202 223 222 202 203 224 223 203 204 225 224 204 205 226 225 205 206 227 226 206 207 228 227 207 208 229 228 208 209 230 229
        </DataArray>
        <DataArray type="Int32" Name="offsets" format="ascii">
          4 8 12 16 20 24 28 32 36 40 44 48 52 56 60 64 68 72 76 80 84 88 92 96 100 104 108 112 116 120 124 128 132 136 140 144 148 152 156 160 164 168 172 176 180 184 188 192 196 200 204 208 212 216 220 224 228 232 236 240 244 248 252 256 260 264 268 272 276 280 284 288 292 296 300 304 308 312 316 320 324 328 332 336 340 344 348 352 356 360 364 368 372 376 380 384 388 392 396 400 404 408 412 416 420 424 428 432 436 440 444 448 452 456 460 464 468 472 476 480 484 488 492 496 500 504 508 512 516 520 524 528 532 536 540 544 548 552 556 560 564 568 572 576 580 584 588 592 596 600 604 608 612 616 620 624 628 632 636 640 644 648 652 656 660 664 668 672 676 680 684 688 692 696 700 704 708 712 716 720 724 728 732 736 740 744 748 752 756 760 764 768 772 776 780 784 788 792 796 800
        </DataArray>
        <DataArray type="Int32" Name="types" format="ascii">
          9 9 9 9 9 9 9 9 9 9 9 9 9 9 9 9 9 9 9 9 9 9 9 9 9 9 9 9 9 9 9 9 9 9 9 9 9 9 9 9 9 9 9 9 9 9 9 9 9 9 9 9 9 9 9 9 9 9 9 9 9 9 9 9 9 9 9 9 9 9 9 9 9 9 9 9 9 9 9 9 9 9 9 9 9 9 9 9 9 9 9 9 9 9 9 9 9 9 9 9 9 9 9 9 9 9 9 9 9 9 9 9 9 9 9 9 9 9 9 9 9 9 9 9 9 9 9 9 9 9 9 9 9 9 9 9 9 9 9 9 9 9 9 9 9 9 9 9 9 9 9 9 9 9 9 9 9 9 9 9 9 9 9 9 9 9 9 9 9 9 9 9 9 9 9 9 9 9 9 9 9 9 9 9 9 9 9 9 9 9 9 9 9 9 9 9 9 9 9 9
        </DataArray>
      </Cells>
      <CellData>
        <DataArray type="Float64" Name="velocity_magnitude" format="ascii">
          0.286630203909322 0.290813989857347 0.291566591528073 0.29471344111983 0.293789694049425 0.29583513014289 0.294660789820887 0.295994749939669 0.295075943114694 0.295895909831156 0.295314870531747 0.295767848217857 0.295456448735448 0.295674985326679 0.295533462684462 0.295622982002403 0.295569587363865 0.295599445521466 0.295583712042585 0.295590751104569 0.763193274380141 0.766025605601074 0.764335876599239 0.767427868575747 0.766070504367865 0.768442004783749 0.767208142830632 0.7687826798998 0.767840750143877 0.768785955413228 0.76818722918329 0.768694923685226 0.76837396900906 0.768612488015372 0.768467771606192 0.768562943457475 0.768509405203419 0.768540101067065 0.768524896703408 0.768531579354487 1.12274947872726 1.12439937793831 1.12149934504042 1.12355538899656 1.12170525038342 1.12356244840179 1.12223677755669 1.12357078481925 1.12266187868785 1.12348798559689 1.12293752286787 1.12338464713974 1.1230978312395 1.12330690863856 1.12318073032094 1.12326300673681 1.12321763171879 1.12324355163093 1.12323120200861 1.12323642573562 1.36326445096145 1.36464768557572 1.36112511629673 1.36231719569239 1.35981439241943 1.36103603493317 1.35940287178423 1.36040065319235 1.35939711571564 1.36006523337339 1.35950210442547 1.35987889206773 1.3595998263094 1.35977916515232 1.35966095880981 1.3597316123968 1.3596907065169 1.3597125699992 1.35970203852149 1.35970608547339 1.48343246283271 1.48476365487167 1.48112449663125 1.48195343587305 1.4791590129907 1.48002411165533 1.47818808770607 1.47896455101761 1.47786711569191 1.47842327749581 1.47782756834871 1.47815382353312 1.47786681203101 1.47802518495357 1.47790632599075 1.47796905005879 1.47792874742547 1.47794796544698 1.47793783384217 1.47794113834845 1.48343246283271 1.48476365487167 1.48112449663125 1.48195343587305 1.4791590129907 1.48002411165533 1.47818808770607 1.47896455101761 1.47786711569191 1.47842327749581 1.47782756834871 1.47815382353312 1.47786681203101 1.47802518495357 1.47790632599075 1.47796905005879 1.47792874742547 1.47794796544698 1.47793783384217 1.47794113834845 1.36326445096145 1.36464768557572 1.36112511629673 1.36231719569239 1.35981439241943 1.36103603493317 1.35940287178423 1.36040065319235 1.35939711571564 1.36006523337339 1.35950210442547 1.35987889206773 1.3595998263094 1.35977916515232 1.35966095880981 1.3597316123968 1.3596907065169 1.3597125699992 1.35970203852149 1.35970608547339 1.12274947872726 1.12439937793831 1.12149934504042 1.12355538899656 1.12170525038342 1.12356244840179 1.12223677755669 1.12357078481925 1.12266187868785 1.12348798559689 1.12293752286787 1.12338464713974 1.1230978312395 1.12330690863856 1.12318073032094 1.12326300673681 1.12321763171879 1.12324355163093 1.12323120200861 1.12323642573562 0.76319327438014 0.766025605601074 0.764335876599238 0.767427868575747 0.766070504367865 0.76844200478375 0.767208142830632 0.7687826798998 0.767840750143877 0.768785955413228 0.76818722918329 0.768694923685226 0.768373969009061 0.768612488015372 0.768467771606192 0.768562943457475 0.768509405203419 0.768540101067065 0.768524896703409 0.768531579354487 0.286630203909322 0.290813989857347 0.291566591528074 0.294713441119831 0.293789694049425 0.29583513014289 0.294660789820887 0.295994749939669 0.295075943114694 0.295895909831156 0.295314870531747 0.295767848217857 0.295456448735448 0.29567498532668 0.295533462684462 0.295622982002403 0.295569587363865 0.295599445521466 0.295583712042586 0.295590751104569
        </DataArray>
        <DataArray type="Float64" Name="pressure" format="ascii">
          2.32015913762049 2.13149986208231 2.10023824382497 1.91715772982295 1.85767292791944 1.69377403672395 1.61211796056982 1.4661853851593 1.36846821591609 1.2355058457335 1.12739852172066 1.00240866887846 0.88840683386192 0.767645823252318 0.650753511078406 0.53191039971614 0.413817678450108 0.29569928359783 0.177200485557772 0.0592970710422422 2.34801723496885 2.13222878572474 2.10293404875162 1.91536705333624 1.85717934845307 1.69275224346764 1.61168222456785 1.46577498703237 1.36826317399076 1.23537081515101 1.12730872818814 1.00237702577994 0.88836506835372 0.76764661141187 0.650733000808653 0.531916429470167 0.413807891713871 0.295703612723109 0.177196368802725 0.05929959152286 2.35205715060544 2.13235056119924 2.10392951000166 1.91511286449428 1.85735861960244 1.69258543109571 1.61167384850333 1.46572124171217 1.3682147055159 1.23537818624343 1.12725888837116 1.00240315879467 0.888327117664985 0.767669823685669 0.650709564507887 0.531931504947647 0.413795735693847 0.295711405596347 0.177190522751152 0.0593039510336016 2.36040144755438 2.13446114155265 2.10664459669165 1.91482947834841 1.85769907860222 1.69210091421011 1.61149996216373 1.46546042350806 1.36802892771882 1.23528789909761 1.12713687565906 1.00239006070571 0.888257347036281 0.767679632450536 0.650673115238465 0.531942247686267 0.413778439040562 0.295718288183025 0.177183290734023 0.0593076536470151 2.36137459310465 2.13471701986201 2.1070492905874 1.91472293702133 1.85774590944217 1.69197780383347 1.61145142445092 1.46540199038674 1.36797316864482 1.23527724813603 1.12709376241796 1.00239877560223 0.88822916265752 0.767690617857337 0.650657327650382 0.531949708236234 0.413770866732359 0.295722139563265 0.177179942138568 0.0593095519632271 2.36137459310464 2.13471701986201 2.1070492905874 1.91472293702133 1.85774590944217 1.69197780383347 1.61145142445092 1.46540199038674 1.36797316864482 1.23527724813603 1.12709376241796 1.00239877560223 0.888229162657519 0.767690617857336 0.650657327650383 0.531949708236233 0.413770866732358 0.295722139563264 0.177179942138568 0.0593095519632273 2.36040144755438 2.13446114155265 2.10664459669165 1.91482947834841 1.85769907860222 1.69210091421011 1.61149996216373 1.46546042350806 1.36802892771882 1.23528789909761 1.12713687565905 1.00239006070571 0.888257347036281 0.767679632450537 0.650673115238465 0.531942247686267 0.413778439040562 0.295718288183025 0.177183290734023 0.059307653647015 2.35205715060544 2.13235056119924 2.10392951000166 1.91511286449428 1.85735861960244 1.69258543109571 1.61167384850333 1.46572124171217 1.3682147055159 1.23537818624343 1.12725888837116 1.00240315879467 0.888327117664985 0.767669823685669 0.650709564507888 0.531931504947647 0.413795735693846 0.295711405596346 0.177190522751151 0.0593039510336019 2.34801723496885 2.13222878572474 2.10293404875162 1.91536705333624 1.85717934845307 1.69275224346764 1.61168222456785 1.46577498703237 1.36826317399076 1.23537081515101 1.12730872818814 1.00237702577994 0.88836506835372 0.767646611411871 0.650733000808653 0.531916429470167 0.413807891713871 0.295703612723109 0.177196368802725 0.0592995915228597 2.32015913762049 2.13149986208231 2.10023824382497 1.91715772982296 1.85767292791944 1.69377403672395 1.61211796056982 1.4661853851593 1.36846821591609 1.2355058457335 1.12739852172066 1.00240866887846 0.88840683386192 0.767645823252318 0.650753511078406 0.53191039971614 0.413817678450108 0.29569928359783 0.177200485557772 0.0592970710422421
        </DataArray>
        <DataArray type="Float64" Name="velocity" NumberOfComponents="3" format="ascii">
          0.286612714837312 -0.00316630489451368 0 0.290809105555619 -0.00168547402532377 0 0.29156377896238 -0.00128066095230401 0 0.294713029937619 -0.00049230242682615 0 0.293789553419463 -0.000287456513490296 0 0.295835117109699 -8.78142982217767e-05 0 0.294660786104883 -4.67965926070333e-05 0 0.295994749836045 -7.83227692673115e-06 0 0.295075943108079 -1.97586543526863e-06 0 0.295895909826789 1.60758652515e-06 0 0.29531487050656 3.85696433832201e-06 0 0.29576784821704 6.95459939651085e-07 0 0.295456448717764 3.23258146210456e-06 0 0.295674985326537 -2.90313509933079e-07 0 0.295533462677815 1.98214668639468e-06 0 0.295622982002125 -4.05781526113084e-07 0 0.295569587362039 1.03897483737217e-06 0 0.295599445521323 -2.90470650002101e-07 0 0.295583712042361 3.64458833414143e-07 0 0.295590751104231 -4.46749446232959e-07 0 0.763181260998769 -0.00428216293581527 0 0.766018987672889 -0.00318417353399604 0 0.764330904136806 -0.0027570343013655 0 0.767426290112263 -0.00155650610106991 0 0.766069794215325 -0.00104309794626626 0 0.768441802996524 -0.000556887348742539 0 0.767208065800706 -0.000343796404693851 0 0.768782657797066 -0.000184348578640751 0 0.767840743082024 -0.000104138158205916 0 0.768785953025301 -6.05938065095012e-05 0 0.768187228709333 -2.69847284561215e-05 0 0.768694923409619 -2.05843595339703e-05 0 0.768373968997484 -4.21780035542899e-06 0 0.76861248797963 -7.41236845125275e-06 0 0.768467771605443 1.07273910079443e-06 0 0.768562943452532 -2.75632517662291e-06 0 0.768509405202122 1.41185146754238e-06 0 0.768540101066335 -1.05938808356993e-06 0 0.768524896703144 6.37148360219e-07 0 0.768531579353725 -1.08186181999969e-06 0 1.12274692435937 -0.00239495801888886 0 1.12439602298973 -0.00274674224272308 0 1.12149576086639 -0.00283536325862805 0 1.1235535461865 -0.00203494347574994 0 1.12170420036866 -0.00153480064892827 0 1.12356202640588 -0.000973795323033809 0 1.12223659214733 -0.000645094088721519 0 1.12357071650928 -0.000391793527468047 0 1.12266185429958 -0.000234007620805262 0 1.12348797637287 -0.000143965767481546 0 1.12293752043183 -7.39664625104559e-05 0 1.12338464602084 -5.01388652273282e-05 0 1.12309783107701 -1.91046050274462e-05 0 1.12330690851328 -1.67771526229641e-05 0 1.12318073031692 -3.00203817466607e-06 0 1.1232630067239 -5.38526991674397e-06 0 1.12321763171867 5.11691375351356e-07 0 1.12324355162964 -1.70307266643767e-06 0 1.12323120200849 5.0933742744876e-07 0 1.12323642573495 -1.22537818655451e-06 0 1.36326367896754 -0.00145081464171275 0 1.36464642797232 -0.00185266553125661 0 1.36112357353511 -0.00204933667768233 0 1.36231627439394 -0.00158436126155254 0 1.3598138032528 -0.00126582548779069 0 1.36103576617966 -0.000855316508744039 0 1.35940274291867 -0.000591912505923167 0 1.36040060073112 -0.000377804922642919 0 1.35939709542143 -0.000234895210356611 0 1.36006522525524 -0.000148601593529805 0 1.35950210199073 -8.13638966038237e-05 0 1.35987889099327 -5.40579782620185e-05 0 1.35959982609565 -2.41084648107724e-05 0 1.35977916502728 -1.84407447541734e-05 0 1.3596609587985 -5.54571497673191e-06 0 1.35973161238422 -5.84736757963111e-06 0 1.35969070651677 -5.9672822769412e-07 0 1.35971256999807 -1.75140341004153e-06 0 1.35970203852149 1.34056395668311e-07 0 1.35970608547305 -9.5994820164031e-07 0 1.48343242622191 -0.000329574417570124 0 1.48476356037638 -0.00052972288940607 0 1.48112436047878 -0.000635072824568358 0 1.48195333357218 -0.000550645285424493 0 1.47915894097339 -0.000461573524882328 0 1.48002407342224 -0.000336410155684381 0 1.47818806799831 -0.000241378419708954 0 1.47896454211474 -0.000162277668763114 0 1.4778671119911 -0.000104587763230595 0 1.47842327592413 -6.8170483520851e-05 0 1.47782756782464 -3.93568402686251e-05 0 1.47815382330351 -2.60538381060649e-05 0 1.47786681197437 -1.29389563921795e-05 0 1.47802518492491 -9.20483636690678e-06 0 1.47790632598634 -3.61057091262599e-06 0 1.47796905005576 -2.99280964652661e-06 0 1.47792874742527 -7.76919027828483e-07 0 1.47794796544671 -8.93744855408104e-07 0 1.47793783384216 -1.17004242373822e-07 0 1.47794113834839 -4.05265160564856e-07 0 1.48343242622191 0.000329574417569951 0 1.48476356037638 0.000529722889405869 0 1.48112436047878 0.000635072824568044 0 1.48195333357218 0.000550645285424123 0 1.47915894097339 0.000461573524882242 0 1.48002407342224 0.000336410155684411 0 1.47818806799831 0.000241378419709307 0 1.47896454211474 0.000162277668763531 0 1.4778671119911 0.000104587763231161 0 1.47842327592413 6.81704835210315e-05 0 1.47782756782464 3.93568402687261e-05 0 1.47815382330351 2.60538381059439e-05 0 1.47786681197437 1.29389563923048e-05 0 1.47802518492491 9.20483636700292e-06 0 1.47790632598634 3.61057091258079e-06 0 1.47796905005576 2.99280964659405e-06 0 1.47792874742527 7.76919027871094e-07 0 1.47794796544671 8.93744855488988e-07 0 1.47793783384216 1.17004242463133e-07 0 1.47794113834839 4.0526516055269e-07 0 1.36326367896754 0.00145081464171243 0 1.36464642797232 0.00185266553125635 0 1.36112357353511 0.00204933667768204 0 1.36231627439394 0.00158436126155226 0 1.3598138032528 0.00126582548779042 0 1.36103576617966 0.000855316508743961 0 1.35940274291867 0.000591912505923397 0 1.36040060073112 0.000377804922643211 0 1.35939709542143 0.000234895210357167 0 1.36006522525524 0.000148601593530022 0 1.35950210199073 8.13638966039228e-05 0 1.35987889099328 5.40579782619614e-05 0 1.35959982609565 2.41084648106784e-05 0 1.35977916502728 1.84407447540328e-05 0 1.3596609587985 5.54571497671144e-06 0 1.35973161238423 5.84736757961858e-06 0 1.35969070651677 5.96728227707812e-07 0 1.35971256999807 1.75140340998189e-06 0 1.35970203852149 -1.34056395667952e-07 0 1.35970608547305 9.59948201660098e-07 0 1.12274692435937 0.00239495801888903 0 1.12439602298973 0.002746742242723 0 1.12149576086639 0.00283536325862822 0 1.1235535461865 0.00203494347574996 0 1.12170420036866 0.00153480064892832 0 1.12356202640588 0.000973795323033935 0 1.12223659214733 0.000645094088721646 0 1.12357071650928 0.00039179352746804 0 1.12266185429958 0.000234007620805316 0 1.12348797637287 0.000143965767481716 0 1.12293752043183 7.39664625105789e-05 0 1.12338464602084 5.01388652274419e-05 0 1.12309783107701 1.91046050274624e-05 0 1.12330690851328 1.67771526229729e-05 0 1.12318073031692 3.00203817474121e-06 0 1.1232630067239 5.3852699167905e-06 0 1.12321763171867 -5.11691375338034e-07 0 1.12324355162964 1.70307266646529e-06 0 1.12323120200849 -5.09337427504657e-07 0 1.12323642573496 1.225378186514e-06 0 0.763181260998769 0.00428216293581529 0 0.766018987672888 0.00318417353399607 0 0.764330904136805 0.00275703430136548 0 0.767426290112263 0.00155650610106998 0 0.766069794215324 0.00104309794626628 0 0.768441802996524 0.000556887348742596 0 0.767208065800706 0.000343796404693823 0 0.768782657797066 0.000184348578640709 0 0.767840743082024 0.0001041381582058 0 0.768785953025301 6.05938065094979e-05 0 0.768187228709333 2.69847284561677e-05 0 0.768694923409619 2.05843595340247e-05 0 0.768373968997484 4.21780035543028e-06 0 0.76861248797963 7.41236845131481e-06 0 0.768467771605443 -1.07273910078083e-06 0 0.768562943452532 2.75632517651294e-06 0 0.768509405202123 -1.41185146763665e-06 0 0.768540101066335 1.05938808350772e-06 0 0.768524896703144 -6.37148360294605e-07 0 0.768531579353726 1.08186182001918e-06 0 0.286612714837312 0.0031663048945137 0 0.290809105555619 0.00168547402532382 0 0.29156377896238 0.00128066095230402 0 0.29471302993762 0.000492302426826283 0 0.293789553419463 0.000287456513490359 0 0.2958351171097 8.78142982217661e-05 0 0.294660786104883 4.67965926070666e-05 0 0.295994749836045 7.83227692676496e-06 0 0.295075943108079 1.9758654351528e-06 0 0.295895909826789 -1.60758652520253e-06 0 0.29531487050656 -3.85696433831329e-06 0 0.29576784821704 -6.95459939608842e-07 0 0.295456448717764 -3.23258146199867e-06 0 0.295674985326537 2.90313510046711e-07 0 0.295533462677815 -1.98214668638885e-06 0 0.295622982002125 4.05781526048168e-07 0 0.295569587362039 -1.03897483739153e-06 0 0.295599445521323 2.90470650015168e-07 0 0.295583712042361 -3.64458833371919e-07 0 0.295590751104231 4.46749446229942e-07 0
        </DataArray>
      </CellData>
    </Piece>
  </UnstructuredGrid>
</VTKFile>
