<?xml version="1.0"?>
<VTKFile type="UnstructuredGrid" version="0.1" byte_order="LittleEndian">
  <UnstructuredGrid>
    <Piece NumberOfPoints="1071" NumberOfCells="1000">
      <Points>
        <DataArray type="Float64" NumberOfComponents="3" format="ascii">
          0 0 0 0.04 0 0 0.08 0 0 0.12 0 0 0.16 0 0 0.2 0 0 0.24 0 0 0.28 0 0 0.32 0 0 0.36 0 0 0.4 0 0 0.44 0 0 0.48 0 0 0.52 0 0 0.56 0 0 0.6 0 0 0.64 0 0 0.68 0 0 0.72 0 0 0.76 0 0 0.8 0 0 0.84 0 0 0.88 0 0 0.92 0 0 0.96 0 0 1 0 0 1.04 0 0 1.08 0 0 1.12 0 0 1.16 0 0 1.2 0 0 1.24 0 0 1.28 0 0 1.32 0 0 1.36 0 0 1.4 0 0 1.44 0 0 1.48 0 0 1.52 0 0 1.56 0 0 1.6 0 0 1.64 0 0 1.68 0 0 1.72 0 0 1.76 0 0 1.8 0 0 1.84 0 0 1.88 0 0 1.92 0 0 1.96 0 0 2 0 0 0 0.05 0 0.04 0.05 0 0.08 0.05 0 0.12 0.05 0 0.16 0.05 0 0.2 0.05 0 0.24 0.05 0 0.28 0.05 0 0.32 0.05 0 0.36 0.05 0 0.4 0.05 0 0.44 0.05 0 0.48 0.05 0 0.52 0.05 0 0.56 0.05 0 0.6 0.05 0 0.64 0.05 0 0.68 0.05 0 0.72 0.05 0 0.76 0.05 0 0.8 0.05 0 0.84 0.05 0 0.88 0.05 0 0.92 0.05 0 0.96 0.05 0 1 0.05 0 1.04 0.05 0 1.08 0.05 0 1.12 0.05 0 1.16 0.05 0 1.2 0.05 0 1.24 0.05 0 1.28 0.05 0 1.32 0.05 0 1.36 0.05 0 1.4 0.05 0 1.44 0.05 0 1.48 0.05 0 1.52 0.05 0 1.56 0.05 0 1.6 0.05 0 1.64 0.05 0 1.68 0.05 0 1.72 0.05 0 1.76 0.05 0 1.8 0.05 0 1.84 0.05 0 1.88 0.05 0 1.92 0.05 0 1.96 0.05 0 2 0.05 0 0 0.1 0 0.04 0.1 0 0.08 0.1 0 0.12 0.1 0 0.16 0.1 0 0.2 0.1 0 0.24 0.1 0 0.28 0.1 0 0.32 0.1 0 0.36 0.1 0 0.4 0.1 0 0.44 0.1 0 0.48 0.1 0 0.52 0.1 0 0.56 0.1 0 0.6 0.1 0 0.64 0.1 0 0.68 0.1 0 0.72 0.1 0 0.76 0.1 0 0.8 0.1 0 0.84 0.1 0 0.88 0.1 0 0.92 0.1 0 0.96 0.1 0 1 0.1 0 1.04 0.1 0 1.08 0.1 0 1.12 0.1 0 1.16 0.1 0 1.2 0.1 0 1.24 0.1 0 1.28 0.1 0 1.32 0.1 0 1.36 0.1 0 1.4 0.1 0 1.44 0.1 0 1.48 0.1 0 1.52 0.1 0 1.56 0.1 0 1.6 0.1 0 1.64 0.1 0 1.68 0.1 0 1.72 0.1 0 1.76 0.1 0 1.8 0.1 0 1.84 0.1 0 1.88 0.1 0 1.92 0.1 0 1.96 0.1 0 2 0.1 0 0 0.15 0 0.04 0.15 0 0.08 0.15 0 0.12 0.15 0 0.16 0.15 0 0.2 0.15 0 0.24 0.15 0 0.28 0.15 0 0.32 0.15 0 0.36 0.15 0 0.4 0.15 0 0.44 0.15 0 0.48 0.15 0 0.52 0.15 0 0.56 0.15 0 0.6 0.15 0 0.64 0.15 0 0.68 0.15 0 0.72 0.15 0 0.76 0.15 0 0.8 0.15 0 0.84 0.15 0 0.88 0.15 0 0.92 0.15 0 0.96 0.15 0 1 0.15 0 1.04 0.15 0 1.08 0.15 0 1.12 0.15 0 1.16 0.15 0 1.2 0.15 0 1.24 0.15 0 1.28 0.15 0 1.32 0.15 0 1.36 0.15 0 1.4 0.15 0 1.44 0.15 0 1.48 0.15 0 1.52 0.15 0 1.56 0.15 0 1.6 0.15 0 1.64 0.15 0 1.68 0.15 0 1.72 0.15 0 1.76 0.15 0 1.8 0.15 0 1.84 0.15 0 1.88 0.15 0 1.92 0.15 0 1.96 0.15 0 2 0.15 0 0 0.2 0 0.04 0.2 0 0.08 0.2 0 0.12 0.2 0 0.16 0.2 0 0.2 0.2 0 0.24 0.2 0 0.28 0.2 0 0.32 0.2 0 0.36 0.2 0 0.4 0.2 0 0.44 0.2 0 0.48 0.2 0 0.52 0.2 0 0.56 0.2 0 0.6 0.2 0 0.64 0.2 0 0.68 0.2 0 0.72 0.2 0 0.76 0.2 0 0.8 0.2 0 0.84 0.2 0 0.88 0.2 0 0.92 0.2 0 0.96 0.2 0 1 0.2 0 1.04 0.2 0 1.08 0.2 0 1.12 0.2 0 1.16 0.2 0 1.2 0.2 0 1.24 0.2 0 1.28 0.2 0 1.32 0.2 0 1.36 0.2 0 1.4 0.2 0 1.44 0.2 0 1.48 0.2 0 1.52 0.2 0 1.56 0.2 0 1.6 0.2 0 1.64 0.2 0 1.68 0.2 0 1.72 0.2 0 1.76 0.2 0 1.8 0.2 0 1.84 0.2 0 1.88 0.2 0 1.92 0.2 0 1.96 0.2 0 2 0.2 0 0 0.25 0 0.04 0.25 0 0.08 0.25 0 0.12 0.25 0 0.16 0.25 0 0.2 0.25 0 0.24 0.25 0 0.28 0.25 0 0.32 0.25 0 0.36 0.25 0 0.4 0.25 0 0.44 0.25 0 0.48 0.25 0 0.52 0.25 0 0.56 0.25 0 0.6 0.25 0 0.64 0.25 0 0.68 0.25 0 0.72 0.25 0 0.76 0.25 0 0.8 0.25 0 0.84 0.25 0 0.88 0.25 0 0.92 0.25 0 0.96 0.25 0 1 0.25 0 1.04 0.25 0 1.08 0.25 0 1.12 0.25 0 1.16 0.25 0 1.2 0.25 0 1.24 0.25 0 1.28 0.25 0 1.32 0.25 0 1.36 0.25 0 1.4 0.25 0 1.44 0.25 0 1.48 0.25 0 1.52 0.25 0 1.56 0.25 0 1.6 0.25 0 1.64 0.25 0 1.68 0.25 0 1.72 0.25 0 1.76 0.25 0 1.8 0.25 0 1.84 0.25 0 1.88 0.25 0 1.92 0.25 0 1.96 0.25 0 2 0.25 0 0 0.3 0 0.04 0.3 0 0.08 0.3 0 0.12 0.3 0 0.16 0.3 0 0.2 0.3 0 0.24 0.3 0 0.28 0.3 0 0.32 0.3 0 0.36 0.3 0 0.4 0.3 0 0.44 0.3 0 0.48 0.3 0 0.52 0.3 0 0.56 0.3 0 0.6 0.3 0 0.64 0.3 0 0.68 0.3 0 0.72 0.3 0 0.76 0.3 0 0.8 0.3 0 0.84 0.3 0 0.88 0.3 0 0.92 0.3 0 0.96 0.3 0 1 0.3 0 1.04 0.3 0 1.08 0.3 0 1.12 0.3 0 1.16 0.3 0 1.2 0.3 0 1.24 0.3 0 1.28 0.3 0 1.32 0.3 0 1.36 0.3 0 1.4 0.3 0 1.44 0.3 0 1.48 0.3 0 1.52 0.3 0 1.56 0.3 0 1.6 0.3 0 1.64 0.3 0 1.68 0.3 0 1.72 0.3 0 1.76 0.3 0 1.8 0.3 0 1.84 0.3 0 1.88 0.3 0 1.92 0.3 0 1.96 0.3 0 2 0.3 0 0 0.35 0 0.04 0.35 0 0.08 0.35 0 0.12 0.35 0 0.16 0.35 0 0.2 0.35 0 0.24 0.35 0 0.28 0.35 0 0.32 0.35 0 0.36 0.35 0 0.4 0.35 0 0.44 0.35 0 0.48 0.35 0 0.52 0.35 0 0.56 0.35 0 0.6 0.35 0 0.64 0.35 0 0.68 0.35 0 0.72 0.35 0 0.76 0.35 0 0.8 0.35 0 0.84 0.35 0 0.88 0.35 0 0.92 0.35 0 0.96 0.35 0 1 0.35 0 1.04 0.35 0 1.08 0.35 0 1.12 0.35 0 1.16 0.35 0 1.2 0.35 0 1.24 0.35 0 1.28 0.35 0 1.32 0.35 0 1.36 0.35 0 1.4 0.35 0 1.44 0.35 0 1.48 0.35 0 1.52 0.35 0 1.56 0.35 0 1.6 0.35 0 1.64 0.35 0 1.68 0.35 0 1.72 0.35 0 1.76 0.35 0 1.8 0.35 0 1.84 0.35 0 1.88 0.35 0 1.92 0.35 0 1.96 0.35 0 2 0.35 0 0 0.4 0 0.04 0.4 0 0.08 0.4 0 0.12 0.4 0 0.16 0.4 0 0.2 0.4 0 0.24 0.4 0 0.28 0.4 0 0.32 0.4 0 0.36 0.4 0 0.4 0.4 0 0.44 0.4 0 0.48 0.4 0 0.52 0.4 0 0.56 0.4 0 0.6 0.4 0 0.64 0.4 0 0.68 0.4 0 0.72 0.4 0 0.76 0.4 0 0.8 0.4 0 0.84 0.4 0 0.88 0.4 0 0.92 0.4 0 0.96 0.4 0 1 0.4 0 1.04 0.4 0 1.08 0.4 0 1.12 0.4 0 1.16 0.4 0 1.2 0.4 0 1.24 0.4 0 1.28 0.4 0 1.32 0.4 0 1.36 0.4 0 1.4 0.4 0 1.44 0.4 0 1.48 0.4 0 1.52 0.4 0 1.56 0.4 0 1.6 0.4 0 1.64 0.4 0 1.68 0.4 0 1.72 0.4 0 1.76 0.4 0 1.8 0.4 0 1.84 0.4 0 1.88 0.4 0 1.92 0.4 0 1.96 0.4 0 2 0.4 0 0 0.45 0 0.04 0.45 0 0.08 0.45 0 0.12 0.45 0 0.16 0.45 0 0.2 0.45 0 0.24 0.45 0 0.28 0.45 0 0.32 0.45 0 0.36 0.45 0 0.4 0.45 0 0.44 0.45 0 0.48 0.45 0 0.52 0.45 0 0.56 0.45 0 0.6 0.45 0 0.64 0.45 0 0.68 0.45 0 0.72 0.45 0 0.76 0.45 0 0.8 0.45 0 0.84 0.45 0 0.88 0.45 0 0.92 0.45 0 0.96 0.45 0 1 0.45 0 1.04 0.45 0 1.08 0.45 0 1.12 0.45 0 1.16 0.45 0 1.2 0.45 0 1.24 0.45 0 1.28 0.45 0 1.32 0.45 0 1.36 0.45 0 1.4 0.45 0 1.44 0.45 0 1.48 0.45 0 1.52 0.45 0 1.56 0.45 0 1.6 0.45 0 1.64 0.45 0 1.68 0.45 0 1.72 0.45 0 1.76 0.45 0 1.8 0.45 0 1.84 0.45 0 1.88 0.45 0 1.92 0.45 0 1.96 0.45 0 2 0.45 0 0 0.5 0 0.04 0.5 0 0.08 0.5 0 0.12 0.5 0 0.16 0.5 0 0.2 0.5 0 0.24 0.5 0 0.28 0.5 0 0.32 0.5 0 0.36 0.5 0 0.4 0.5 0 0.44 0.5 0 0.48 0.5 0 0.52 0.5 0 0.56 0.5 0 0.6 0.5 0 0.64 0.5 0 0.68 0.5 0 0.72 0.5 0 0.76 0.5 0 0.8 0.5 0 0.84 0.5 0 0.88 0.5 0 0.92 0.5 0 0.96 0.5 0 1 0.5 0 1.04 0.5 0 1.08 0.5 0 1.12 0.5 0 1.16 0.5 0 1.2 0.5 0 1.24 0.5 0 1.28 0.5 0 1.32 0.5 0 1.36 0.5 0 1.4 0.5 0 1.44 0.5 0 1.48 0.5 0 1.52 0.5 0 1.56 0.5 0 1.6 0.5 0 1.64 0.5 0 1.68 0.5 0 1.72 0.5 0 1.76 0.5 0 1.8 0.5 0 1.84 0.5 0 1.88 0.5 0 1.92 0.5 0 1.96 0.5 0 2 0.5 0 0 0.55 0 0.04 0.55 0 0.08 0.55 0 0.12 0.55 0 0.16 0.55 0 0.2 0.55 0 0.24 0.55 0 0.28 0.55 0 0.32 0.55 0 0.36 0.55 0 0.4 0.55 0 0.44 0.55 0 0.48 0.55 0 0.52 0.55 0 0.56 0.55 0 0.6 0.55 0 0.64 0.55 0 0.68 0.55 0 0.72 0.55 0 0.76 0.55 0 0.8 0.55 0 0.84 0.55 0 0.88 0.55 0 0.92 0.55 0 0.96 0.55 0 1 0.55 0 1.04 0.55 0 1.08 0.55 0 1.12 0.55 0 1.16 0.55 0 1.2 0.55 0 1.24 0.55 0 1.28 0.55 0 1.32 0.55 0 1.36 0.55 0 1.4 0.55 0 1.44 0.55 0 1.48 0.55 0 1.52 0.55 0 1.56 0.55 0 1.6 0.55 0 1.64 0.55 0 1.68 0.55 0 1.72 0.55 0 1.76 0.55 0 1.8 0.55 0 1.84 0.55 0 1.88 0.55 0 1.92 0.55 0 1.96 0.55 0 2 0.55 0 0 0.6 0 0.04 0.6 0 0.08 0.6 0 0.12 0.6 0 0.16 0.6 0 0.2 0.6 0 0.24 0.6 0 0.28 0.6 0 0.32 0.6 0 0.36 0.6 0 0.4 0.6 0 0.44 0.6 0 0.48 0.6 0 0.52 0.6 0 0.56 0.6 0 0.6 0.6 0 0.64 0.6 0 0.68 0.6 0 0.72 0.6 0 0.76 0.6 0 0.8 0.6 0 0.84 0.6 0 0.88 0.6 0 0.92 0.6 0 0.96 0.6 0 1 0.6 0 1.04 0.6 0 1.08 0.6 0 1.12 0.6 0 1.16 0.6 0 1.2 0.6 0 1.24 0.6 0 1.28 0.6 0 1.32 0.6 0 1.36 0.6 0 1.4 0.6 0 1.44 0.6 0 1.48 0.6 0 1.52 0.6 0 1.56 0.6 0 1.6 0.6 0 1.64 0.6 0 1.68 0.6 0 1.72 0.6 0 1.76 0.6 0 1.8 0.6 0 1.84 0.6 0 1.88 0.6 0 1.92 0.6 0 1.96 0.6 0 2 0.6 0 0 0.65 0 0.04 0.65 0 0.08 0.65 0 0.12 0.65 0 0.16 0.65 0 0.2 0.65 0 0.24 0.65 0 0.28 0.65 0 0.32 0.65 0 0.36 0.65 0 0.4 0.65 0 0.44 0.65 0 0.48 0.65 0 0.52 0.65 0 0.56 0.65 0 0.6 0.65 0 0.64 0.65 0 0.68 0.65 0 0.72 0.65 0 0.76 0.65 0 0.8 0.65 0 0.84 0.65 0 0.88 0.65 0 0.92 0.65 0 0.96 0.65 0 1 0.65 0 1.04 0.65 0 1.08 0.65 0 1.12 0.65 0 1.16 0.65 0 1.2 0.65 0 1.24 0.65 0 1.28 0.65 0 1.32 0.65 0 1.36 0.65 0 1.4 0.65 0 1.44 0.65 0 1.48 0.65 0 1.52 0.65 0 1.56 0.65 0 1.6 0.65 0 1.64 0.65 0 1.68 0.65 0 1.72 0.65 0 1.76 0.65 0 1.8 0.65 0 1.84 0.65 0 1.88 0.65 0 1.92 0.65 0 1.96 0.65 0 2 0.65 0 0 0.7 0 0.04 0.7 0 0.08 0.7 0 0.12 0.7 0 0.16 0.7 0 0.2 0.7 0 0.24 0.7 0 0.28 0.7 0 0.32 0.7 0 0.36 0.7 0 0.4 0.7 0 0.44 0.7 0 0.48 0.7 0 0.52 0.7 0 0.56 0.7 0 0.6 0.7 0 0.64 0.7 0 0.68 0.7 0 0.72 0.7 0 0.76 0.7 0 0.8 0.7 0 0.84 0.7 0 0.88 0.7 0 0.92 0.7 0 0.96 0.7 0 1 0.7 0 1.04 0.7 0 1.08 0.7 0 1.12 0.7 0 1.16 0.7 0 1.2 0.7 0 1.24 0.7 0 1.28 0.7 0 1.32 0.7 0 1.36 0.7 0 1.4 0.7 0 1.44 0.7 0 1.48 0.7 0 1.52 0.7 0 1.56 0.7 0 1.6 0.7 0 1.64 0.7 0 1.68 0.7 0 1.72 0.7 0 1.76 0.7 0 1.8 0.7 0 1.84 0.7 0 1.88 0.7 0 1.92 0.7 0 1.96 0.7 0 2 0.7 0 0 0.75 0 0.04 0.75 0 0.08 0.75 0 0.12 0.75 0 0.16 0.75 0 0.2 0.75 0 0.24 0.75 0 0.28 0.75 0 0.32 0.75 0 0.36 0.75 0 0.4 0.75 0 0.44 0.75 0 0.48 0.75 0 0.52 0.75 0 0.56 0.75 0 0.6 0.75 0 0.64 0.75 0 0.68 0.75 0 0.72 0.75 0 0.76 0.75 0 0.8 0.75 0 0.84 0.75 0 0.88 0.75 0 0.92 0.75 0 0.96 0.75 0 1 0.75 0 1.04 0.75 0 1.08 0.75 0 1.12 0.75 0 1.16 0.75 0 1.2 0.75 0 1.24 0.75 0 1.28 0.75 0 1.32 0.75 0 1.36 0.75 0 1.4 0.75 0 1.44 0.75 0 1.48 0.75 0 1.52 0.75 0 1.56 0.75 0 1.6 0.75 0 1.64 0.75 0 1.68 0.75 0 1.72 0.75 0 1.76 0.75 0 1.8 0.75 0 1.84 0.75 0 1.88 0.75 0 1.92 0.75 0 1.96 0.75 0 2 0.75 0 0 0.8 0 0.04 0.8 0 0.08 0.8 0 0.12 0.8 0 0.16 0.8 0 0.2 0.8 0 0.24 0.8 0 0.28 0.8 0 0.32 0.8 0 0.36 0.8 0 0.4 0.8 0 0.44 0.8 0 0.48 0.8 0 0.52 0.8 0 0.56 0.8 0 0.6 0.8 0 0.64 0.8 0 0.68 0.8 0 0.72 0.8 0 0.76 0.8 0 0.8 0.8 0 0.84 0.8 0 0.88 0.8 0 0.92 0.8 0 0.96 0.8 0 1 0.8 0 1.04 0.8 0 1.08 0.8 0 1.12 0.8 0 1.16 0.8 0 1.2 0.8 0 1.24 0.8 0 1.28 0.8 0 1.32 0.8 0 1.36 0.8 0 1.4 0.8 0 1.44 0.8 0 1.48 0.8 0 1.52 0.8 0 1.56 0.8 0 1.6 0.8 0 1.64 0.8 0 1.68 0.8 0 1.72 0.8 0 1.76 0.8 0 1.8 0.8 0 1.84 0.8 0 1.88 0.8 0 1.92 0.8 0 1.96 0.8 0 2 0.8 0 0 0.85 0 0.04 0.85 0 0.08 0.85 0 0.12 0.85 0 0.16 0.85 0 0.2 0.85 0 0.24 0.85 0 0.28 0.85 0 0.32 0.85 0 0.36 0.85 0 0.4 0.85 0 0.44 0.85 0 0.48 0.85 0 0.52 0.85 0 0.56 0.85 0 0
[...]
      <CellData>
        <DataArray type="Float64" Name="velocity_magnitude" format="ascii">
          0.14628573555119 0.147160152288748 0.147200941508149 0.147956718859309 0.14794227426306 0.148357242096489 0.148411022248892 0.148554392763297 0.148675001300747 0.148690953438807 0.148809052376033 0.148808253709792 0.148882509478254 0.148900183469302 0.148938635943572 0.148964588438433 0.148988816052184 0.149011441301101 0.149031193177375 0.149049282072947 0.149065832188091 0.149080994708301 0.149094814804481 0.149107817966908 0.149119513028798 0.149130951864466 0.149140744936634 0.149151306317629 0.149159077297527 0.149169649846434 0.149174767715424 0.149186743102307 0.149187802032496 0.149203375401275 0.149197953991904 0.14922032214744 0.149204964792889 0.149238117851137 0.14920891003216 0.149256645938092 0.149210709345796 0.149274703348308 0.14921255891804 0.149289938001598 0.149217918163754 0.149299490047195 0.14923063765186 0.149300842896864 0.149253972018011 0.149291765023101 0.415909213251841 0.416292914847563 0.415867681701711 0.416259399637263 0.416126413362699 0.416409538674587 0.416478242376137 0.416618568679012 0.416777579271371 0.416839747961399 0.416992341179411 0.417044159155452 0.417149720794453 0.4172104225909 0.417278806528144 0.417337321645388 0.41738887982008 0.417437221350003 0.417480523628703 0.417520136613089 0.417556652432598 0.417590270972856 0.417621240821254 0.417650207709524 0.417676859696436 0.417702233089359 0.417725243664136 0.417748035739746 0.417767695883744 0.417788953744726 0.417805073208152 0.417826143543308 0.417837887432771 0.417860630119013 0.417866398022696 0.417893293997105 0.417890784776707 0.417924709107442 0.417911443201498 0.417954855343014 0.417929342846133 0.417982823500006 0.417946241422748 0.418006759389652 0.417964437914729 0.418024434296338 0.417986055252363 0.418035038614097 0.418011630643754 0.418037023720099 0.655953604676396 0.656202941940253 0.655724510155829 0.655908910081778 0.655678183354688 0.655785083989504 0.655773826332807 0.655798144473129 0.655902830109569 0.655899333113538 0.656015958476605 0.65603514742325 0.656117000641265 0.656162996415021 0.656217415859848 0.656269014039224 0.656314228359306 0.656359168612644 0.656400592309516 0.656439303577487 0.656476019773033 0.656510472615927 0.656542802977922 0.656573515586108 0.656602271291205 0.656629845908663 0.656655403327177 0.65668055946062 0.656703111546895 0.656726601839598 0.656746040736151 0.656768850774423 0.656784636474201 0.65680809150177 0.656819194771105 0.656844995381745 0.656849977982186 0.656879990394754 0.656877410746375 0.656913064767904 0.656902281261216 0.656943595107128 0.656925791460062 0.656970367830929 0.656949256570216 0.656991916856291 0.656973392300988 0.657007283488394 0.65699721792055 0.657015387509137 0.866040748019302 0.866323355912093 0.865914446854029 0.866071507422155 0.865822056685752 0.865846002978307 0.865785904976627 0.865711543475957 0.865765890536181 0.865675252229968 0.865743868461079 0.86569930483728 0.865735186235061 0.865737778851252 0.865752479452427 0.865772009452197 0.865786825314375 0.865805976822864 0.865824630433492 0.865842921590058 0.86586179044556 0.865880344920811 0.86589849720863 0.865916580654443 0.865934075092903 0.865951472240368 0.865967998045577 0.865984839494041 0.866000153267589 0.866016663455878 0.866030417489107 0.86604709072199 0.866058702871648 0.866076311182682 0.866084943526818 0.866104506700477 0.866109148120782 0.866131711889877 0.866131519649351 0.866157663764001 0.866152556964796 0.866181717403387 0.866172999153378 0.866202971646655 0.866193442569829 0.866220634997941 0.866213607932666 0.866234183307894 0.866231503812554 0.866243146514771 1.04605710272428 1.04635405064243 1.04597923770056 1.04614765036058 1.04592096261176 1.04592696955678 1.04588295662886 1.04576632179259 1.04582824579921 1.04569011459853 1.04575102227728 1.04566851069626 1.04568173955499 1.0456565532797 1.0456430038994 1.04563821566614 1.04562711958851 1.04562259608572 1.04561874213619 1.04561530823845 1.04561391982948 1.04561331109883 1.04561335115891 1.04561442116005 1.04561593408491 1.04561822786164 1.0456206393467 1.04562406533708 1.04562695696181 1.04563143775366 1.04563435259065 1.04564005345315 1.04564240191995 1.04564967636952 1.045650777568 1.04566010251444 1.04565929299189 1.04567103757685 1.04566798235023 1.04568199852798 1.04567710882445 1.045692309212 1.04568699200682 1.04570130889329 1.04569757845869 1.04570872157895 1.04570792670694 1.04571481418925 1.04571603708794 1.0457196781937 1.19606365046584 1.19638382554193 1.19603197023313 1.19622124272938 1.19601592060067 1.19601688629763 1.19599659438664 1.19585181775123 1.19593550576114 1.19576420275733 1.19583360918475 1.19572784718347 1.19573353983114 1.19569471760351 1.19566617793426 1.19564945440431 1.19562376227712 1.1956057705781 1.19558865098988 1.19557166794768 1.19555724325491 1.19554380722198 1.19553121225689 1.19551998437463 1.19550952280143 1.19550009241889 1.19549117084987 1.19548348581786 1.19547574097295 1.19546965863895 1.19546270666395 1.19545828675487 1.19545166013684 1.19544904637206 1.19544229252287 1.19544161567863 1.19543443705908 1.19543556127862 1.19542813613178 1.19543029656263 1.195423609353 1.19542518017688 1.19542101097455 1.19541986336443 1.19541991660481 1.19541475747514 1.1954188457478 1.19541107980208 1.19541559576404 1.19541014527707 1.31605976983297 1.31639580838763 1.31604393799415 1.31624661441241 1.31605244910079 1.31604921629168 1.31605305879956 1.31588768890168 1.31599861836462 1.31580474606838 1.31589077845592 1.31577236366364 1.31578000187365 1.31573735769646 1.31570341498069 1.3156838857727 1.31565260477432 1.31562966147373 1.31560748534604 1.31558478401142 1.31556474905139 1.31554554795704 1.31552699114891 1.31550976155482 1.31549325138673 1.31547766754323 1.3154626191546 1.31544870984667 1.31543485626942 1.31542246878814 1.31540953507217 1.31539869235278 1.3153863633562 1.3153770824118 1.31536515600118 1.31535732493029 1.31534588490913 1.31533898378966 1.31532873080308 1.31532150203004 1.31531399057985 1.3153043770114 1.31530174367238 1.3152876276336 1.31529128319861 1.31527236224199 1.31528077239265 1.31526074994943 1.31526805632868 1.31525505458655 1.40605486670513 1.40640791536855 1.40605491995285 1.40627091511196 1.40608544448762 1.40607972574831 1.40610291046007 1.40592024912836 1.40605372651819 1.40584049554682 1.40594051071357 1.40581165305298 1.40582129185887 1.40577621747041 1.40573872325218 1.40571809078153 1.4056836580486 1.40565824837621 1.40563374518312 1.40560829552297 1.40558571767373 1.40556394904763 1.40554271792638 1.40552282422805 1.4055036333862 1.40548528547391 1.40546747661493 1.4054507085481 1.40543404125333 1.40541864969164 1.40540289696097 1.40538885284251 1.40537379295536 1.40536099961664 1.40534660789515 1.40533475103782 1.40532139777966 1.40530963496968 1.40529843814359 1.40528508417396 1.40527810148356 1.4052606899465 1.40526046332817 1.40523678914418 1.40524464780969 1.40521513466933 1.4052284773257 1.40519881697268 1.4052095831942 1.40519113130494 1.46605035159011 1.46641425721089 1.46605612956666 1.46628007809056 1.46609786852786 1.46608968933102 1.46612604948893 1.465931563467 1.46608163481217 1.46585587563245 1.4659669982586 1.46583203108244 1.46584442896765 1.46579891160087 1.46576012353839 1.46573987255088 1.4657043273899 1.46567820860672 1.46565307527632 1.46562665112025 1.46560321513483 1.46558055895721 1.46555834738397 1.46553747258834 1.46551728604547 1.46549788033664 1.46547901404215 1.46546111919324 1.4654433532561 1.46542672636963 1.46540986131244 1.46539442948956 1.46537830139563 1.4653638784403 1.46534858280479 1.46533470408116 1.46532081559727 1.46530640559168 1.46529534504708 1.46527841112969 1.46527259361029 1.46525037644168 1.46525260835746 1.46522285292048 1.46523435511909 1.46519804065627 1.46521540278078 1.46517968201981 1.46519325535358 1.46517180006049 1.49604774163796 1.49641841586511 1.496058053389 1.49628706875409 1.49610714570709 1.49609833883681 1.49614183715354 1.49594133185895 1.49610026061056 1.49586773643538 1.49598466931028 1.49584628111033 1.49585997978284 1.49581403181477 1.49577441997577 1.49575421395567 1.49571797457108 1.49569138781323 1.49566586041767 1.49563888797079 1.49561498792393 1.49559187837814 1.49556918627498 1.4955478511157 1.49552721597405 1.49550734688536 1.49548803287808 1.49546967015401 1.49545146337823 1.49543433944197 1.49541705020507 1.49540106665784 1.49538455668849 1.49536947781589 1.49535389943856 1.49533917753792 1.4953252046161 1.49530963404617 1.49529884015937 1.49528025432883 1.49527524702424 1.4952507134696 1.49525446196019 1.49522167098209 1.49523537362232 1.49519556800632 1.49521539373761 1.49517651469093 1.49519188217491 1.49516901628524 1.49604774163796 1.49641841586511 1.496058053389 1.49628706875409 1.49610714570709 1.49609833883681 1.49614183715354 1.49594133185895 1.49610026061056 1.49586773643538 1.49598466931028 1.49584628111033 1.49585997978284 1.49581403181477 1.49577441997577 1.49575421395567 1.49571797457109 1.49569138781323 1.49566586041767 1.49563888797079 1.49561498792394 1.49559187837814 1.49556918627498 1.4955478511157 1.49552721597405 1.49550734688536 1.49548803287808 1.49546967015401 1.49545146337823 1.49543433944197 1.49541705020508 1.49540106665784 1.49538455668849 1.49536947781589 1.49535389943856 1.49533917753792 1.4953252046161 1.49530963404617 1.49529884015937 1.49528025432883 1.49527524702424 1.4952507134696 1.49525446196019 1.49522167098209 1.49523537362232 1.49519556800632 1.49521539373761 1.49517651469093 1.49519188217491 1.49516901628524 1.46605035159011 1.46641425721089 1.46605612956666 1.46628007809056 1.46609786852786 1.46608968933102 1.46612604948893 1.465931563467 1.46608163481217 1.46585587563245 1.4659669982586 1.46583203108244 1.46584442896766 1.46579891160087 1.46576012353839 1.46573987255088 1.46570432738991 1.46567820860672 1.46565307527632 1.46562665112025 1.46560321513483 1.46558055895721 1.46555834738397 1.46553747258834 1.46551728604547 1.46549788033664 1.46547901404215 1.46546111919324 1.4654433532561 1.46542672636963 1.46540986131244 1.46539442948956 1.46537830139562 1.4653638784403 1.46534858280479 1.46533470408116 1.46532081559727 1.46530640559168 1.46529534504708 1.46527841112969 1.46527259361029 1.46525037644168 1.46525260835746 1.46522285292048 1.46523435511909 1.46519804065627 1.46521540278078 1.46517968201981 1.46519325535358 1.46517180006049 1.40605486670513 1.40640791536855 1.40605491995285 1.40627091511196 1.40608544448762 1.40607972574831 1.40610291046007 1.40592024912837 1.40605372651819 1.40584049554682 1.40594051071357 1.40581165305298 1.40582129185888 1.40577621747041 1.40573872325218 1.40571809078153 1.40568365804861 1.40565824837622 1.40563374518312 1.40560829552297 1.40558571767373 1.40556394904763 1.40554271792638 1.40552282422805 1.4055036333862 1.40548528547391 1.40546747661493 1.4054507085481 1.40543404125333 1.40541864969164 1.40540289696097 1.40538885284251 1.40537379295536 1.40536099961664 1.40534660789515 1.40533475103782 1.40532139777966 1.40530963496968 1.40529843814359 1.40528508417396 1.40527810148356 1.4052606899465 1.40526046332817 1.40523678914418 1.40524464780969 1.40521513466933 1.4052284773257 1.40519881697268 1.4052095831942 1.40519113130494 1.31605976983297 1.31639580838763 1.31604393799415 1.31624661441241 1.31605244910079 1.31604921629168 1.31605305879956 1.31588768890168 1.31599861836462 1.31580474606838 1.31589077845592 1.31577236366364 1.31578000187365 1.31573735769646 1.31570341498069 1.3156838857727 1.31565260477432 1.31562966147373 1.31560748534604 1.31558478401142 1.31556474905139 1.31554554795704 1.31552699114891 1.31550976155482 1.31549325138673 1.31547766754323 1.3154626191546 1.31544870984667 1.31543485626942 1.31542246878814 1.31540953507217 1.31539869235278 1.31538636335621 1.3153770824118 1.31536515600118 1.3153573249303 1.31534588490913 1.31533898378966 1.31532873080308 1.31532150203005 1.31531399057985 1.3153043770114 1.31530174367238 1.3152876276336 1.31529128319861 1.31527236224199 1.31528077239265 1.31526074994943 1.31526805632868 1.31525505458655 1.19606365046584 1.19638382554193 1.19603197023313 1.19622124272938 1.19601592060067 1.19601688629763 1.19599659438664 1.19585181775123 1.19593550576114 1.19576420275733 1.19583360918475 1.19572784718347 1.19573353983114 1.19569471760351 1.19566617793426 1.19564945440431 1.19562376227712 1.1956057705781 1.19558865098988 1.19557166794768 1.19555724325492 1.19554380722199 1.19553121225689 1.19551998437463 1.19550952280143 1.19550009241889 1.19549117084987 1.19548348581786 1.19547574097295 1.19546965863895 1.19546270666395 1.19545828675487 1.19545166013684 1.19544904637206 1.19544229252288 1.19544161567864 1.19543443705908 1.19543556127863 1.19542813613179 1.19543029656263 1.195423609353 1.19542518017688 1.19542101097455 1.19541986336444 1.19541991660481 1.19541475747514 1.19541884574781 1.19541107980208 1.19541559576404 1.19541014527707 1.04605710272428 1.04635405064243 1.04597923770056 1.04614765036058 1.04592096261176 1.04592696955678 1.04588295662886 1.04576632179259 1.04582824579921 1.04569011459853 1.04575102227728 1.04566851069626 1.04568173955499 1.0456565532797 1.0456430038994 1.04563821566614 1.04562711958852 1.04562259608572 1.04561874213619 1.04561530823845 1.04561391982948 1.04561331109884 1.04561335115891 1.04561442116005 1.04561593408491 1.04561822786164 1.0456206393467 1.04562406533708 1.04562695696182 1.04563143775366 1.04563435259065 1.04564005345315 1.04564240191995 1.04564967636952 1.045650777568 1.04566010251444 1.04565929299189 1.04567103757685 1.04566798235023 1.04568199852798 1.04567710882445 1.045692309212 1.04568699200682 1.04570130889329 1.04569757845869 1.04570872157895 1.04570792670694 1.04571481418925 1.04571603708794 1.0457196781937 0.866040748019301 0.866323355912093 0.865914446854029 0.866071507422154 0.865822056685752 0.865846002978307 0.865785904976626 0.865711543475956 0.86576589053618 0.865675252229968 0.865743868461079 0.865699304837279 0.865735186235061 0.865737778851252 0.865752479452427 0.865772009452198 0.865786825314376 0.865805976822864 0.865824630433492 0.865842921590058 0.86586179044556 0.865880344920811 0.86589849720863 0.865916580654443 0.865934075092904 0.865951472240368 0.865967998045577 0.865984839494042 0.866000153267589 0.866016663455879 0.866030417489107 0.86604709072199 0.866058702871648 0.866076311182682 0.866084943526817 0.866104506700477 0.866109148120782 0.866131711889877 0.866131519649351 0.866157663764001 0.866152556964796 0.866181717403387 0.866172999153377 0.866202971646655 0.866193442569829 0.86622063499794 0.866213607932666 0.866234183307894 0.866231503812554 0.866243146514771 0.655953604676397 0.656202941940253 0.655724510155829 0.655908910081778 0.655678183354688 0.655785083989504 0.655773826332807 0.655798144473129 0.655902830109569 0.655899333113538 0.656015958476605 0.65603514742325 0.656117000641265 0.656162996415021 0.656217415859847 0.656269014039223 0.656314228359306 0.656359168612644 0.656400592309515 0.656439303577487 0.656476019773033 0.656510472615927 0.656542802977922 0.656573515586108 0.656602271291206 0.656629845908663 0.656655403327177 0.65668055946062 0.656703111546896 0.656726601839598 0.656746040736151 0.656768850774423 0.656784636474201 0.65680809150177 0.656819194771106 0.656844995381745 0.656849977982186 0.656879990394754 0.656877410746375 0.656913064767905 0.656902281261216 0.656943595107128 0.656925791460062 0.656970367830929 0.656949256570216 0.656991916856291 0.656973392300988 0.657007283488394 0.65699721792055 0.657015387509137 0.415909213251841 0.416292914847563 0.415867681701711 0.416259399637263 0.416126413362698 0.416409538674587 0.416478242376137 0.416618568679012 0.41677757927137 0.416839747961399 0.416992341179411 0.417044159155451 0.417149720794452 0.417210422590899 0.417278806528143 0.417337321645388 0.417388879820079 0.417437221350003 0.417480523628702 0.417520136613088 0.417556652432598 0.417590270972855 0.417621240821254 0.417650207709524 0.417676859696436 0.417702233089359 0.417725243664135 0.417748035739746 0.417767695883743 0.417788953744726 0.417805073208152 0.417826143543308 0.417837887432771 0.417860630119013 0.417866398022695 0.417893293997105 0.417890784776706 0.417924709107442 0.417911443201498 0.417954855343014 0.417929342846133 0.417982823500005 0.417946241422747 0.418006759389652 0.417964437914728 0.418024434296337 0.417986055252363 0.418035038614097 0.418011630643753 0.418037023720099 0.14628573555119 0.147160152288747 0.147200941508148 0.147956718859308 0.147942274263059 0.148357242096488 0.148411022248891 0.148554392763296 0.148675001300746 0.148690953438806 0.148809052376033 0.148808253709791 0.148882509478253 0.148900183469301 0.148938635943572 0.148964588438432 0.148988816052183 0.1490114413011 0.149031193177374 0.149049282072946 0.14906583218809 0.149080994708301 0.149094814804481 0.149107817966907 0.149119513028798 0.149130951864465 0.149140744936633 0.149151306317629 0.149159077297526 0.149169649846433 0.149174767715424 0.149186743102307 0.149187802032496 0.149203375401275 0.149197953991904 0.14922032214744 0.149204964792888 0.149238117851137 0.149208910032159 0.149256645938091 0.149210709345796 0.149274703348307 0.149212558918039 0.149289938001597 0.149217918163753 0.149299490047195 0.149230637651859 0.149300842896864 0.14925397201801 0.1492917650231
        </DataArray>
        <DataArray type="Float64" Name="pressure" format="ascii">