<?xml version="1.0"?>
<VTKFile type="UnstructuredGrid" version="0.1" byte_order="LittleEndian">
  <UnstructuredGrid>
    <Piece NumberOfPoints="4961" NumberOfCells="4800">
      <Points>
        <DataArray type="Float64" NumberOfComponents="3" format="ascii">
          0 0 0 0.291666666666667 0 0 0.583333333333333 0 0 0.875 0 0 1.16666666666667 0 0 1.45833333333333 0 0 1.75 0 0 2.04166666666667 0 0 2.33333333333333 0 0 2.625 0 0 2.91666666666667 0 0 3.20833333333333 0 0 3.5 0 0 3.79166666666667 0 0 4.08333333333333 0 0 4.375 0 0 4.66666666666667 0 0 4.95833333333333 0 0 5.25 0 0 5.54166666666667 0 0 5.83333333333333 0 0 6.125 0 0 6.41666666666667 0 0 6.70833333333333 0 0 7 0 0 7.29166666666667 0 0 7.58333333333333 0 0 7.875 0 0 8.16666666666667 0 0 8.45833333333333 0 0 8.75 0 0 9.04166666666667 0 0 9.33333333333333 0 0 9.625 0 0 9.91666666666667 0 0 10.2083333333333 0 0 10.5 0 0 10.7916666666667 0 0 11.0833333333333 0 0 11.375 0 0 11.6666666666667 0 0 11.9583333333333 0 0 12.25 0 0 12.5416666666667 0 0 12.8333333333333 0 0 13.125 0 0 13.4166666666667 0 0 13.7083333333333 0 0 14 0 0 14.2916666666667 0 0 14.5833333333333 0 0 14.875 0 0 15.1666666666667 0 0 15.4583333333333 0 0 15.75 0 0 16.0416666666667 0 0 16.3333333333333 0 0 16.625 0 0 16.9166666666667 0 0 17.2083333333333 0 0 17.5 0 0 17.7916666666667 0 0 18.0833333333333 0 0 18.375 0 0 18.6666666666667 0 0 18.9583333333333 0 0 19.25 0 0 19.5416666666667 0 0 19.8333333333333 0 0 20.125 0 0 20.4166666666667 0 0 20.7083333333333 0 0 21 0 0 21.2916666666667 0 0 21.5833333333333 0 0 21.875 0 0 22.1666666666667 0 0 22.4583333333333 0 0 22.75 0 0 23.0416666666667 0 0 23.3333333333333 0 0 23.625 0 0 23.9166666666667 0 0 24.2083333333333 0 0 24.5 0 0 24.7916666666667 0 0 25.0833333333333 0 0 25.375 0 0 25.6666666666667 0 0 25.9583333333333 0 0 26.25 0 0 26.5416666666667 0 0 26.8333333333333 0 0 27.125 0 0 27.4166666666667 0 0 27.7083333333333 0 0 28 0 0 28.2916666666667 0 0 28.5833333333333 0 0 28.875 0 0 29.1666666666667 0 0 29.4583333333333 0 0 29.75 0 0 30.0416666666667 0 0 30.3333333333333 0 0 30.625 0 0 30.9166666666667 0 0 31.2083333333333 0 0 31.5 0 0 31.7916666666667 0 0 32.0833333333333 0 0 32.375 0 0 32.6666666666667 0 0 32.9583333333333 0 0 33.25 0 0 33.5416666666667 0 0 33.8333333333333 0 0 34.125 0 0 34.4166666666667 0 0 34.7083333333333 0 0 35 0 0 0 0.05 0 0.291666666666667 0.05 0 0.583333333333333 0.05 0 0.875 0.05 0 1.16666666666667 0.05 0 1.45833333333333 0.05 0 1.75 0.05 0 2.04166666666667 0.05 0 2.33333333333333 0.05 0 2.625 0.05 0 2.91666666666667 0.05 0 3.20833333333333 0.05 0 3.5 0.05 0 3.79166666666667 0.05 0 4.08333333333333 0.05 0 4.375 0.05 0 4.66666666666667 0.05 0 4.95833333333333 0.05 0 5.25 0.05 0 5.54166666666667 0.05 0 5.83333333333333 0.05 0 6.125 0.05 0 6.41666666666667 0.05 0 6.70833333333333 0.05 0 7 0.05 0 7.29166666666667 0.05 0 7.58333333333333 0.05 0 7.875 0.05 0 8.16666666666667 0.05 0 8.45833333333333 0.05 0 8.75 0.05 0 9.04166666666667 0.05 0 9.33333333333333 0.05 0 9.625 0.05 0 9.91666666666667 0.05 0 10.2083333333333 0.05 0 10.5 0.05 0 10.7916666666667 0.05 0 11.0833333333333 0.05 0 11.375 0.05 0 11.6666666666667 0.05 0 11.9583333333333 0.05 0 12.25 0.05 0 12.5416666666667 0.05 0 12.8333333333333 0.05 0 13.125 0.05 0 13.4166666666667 0.05 0 13.7083333333333 0.05 0 14 0.05 0 14.2916666666667 0.05 0 14.5833333333333 0.05 0 14.875 0.05 0 15.1666666666667 0.05 0 15.4583333333333 0.05 0 15.75 0.05 0 16.0416666666667 0.05 0 16.3333333333333 0.05 0 16.625 0.05 0 16.9166666666667 0.05 0 17.2083333333333 0.05 0 17.5 0.05 0 17.7916666666667 0.05 0 18.0833333333333 0.05 0 18.375 0.05 0 18.6666666666667 0.05 0 18.9583333333333 0.05 0 19.25 0.05 0 19.5416666666667 0.05 0 19.8333333333333 0.05 0 20.125 0.05 0 20.4166666666667 0.05 0 20.7083333333333 0.05 0 21 0.05 0 21.2916666666667 0.05 0 21.5833333333333 0.05 0 21.875 0.05 0 22.1666666666667 0.05 0 22.4583333333333 0.05 0 22.75 0.05 0 23.0416666666667 0.05 0 23.3333333333333 0.05 0 23.625 0.05 0 23.9166666666667 0.05 0 24.2083333333333 0.05 0 24.5 0.05 0 24.7916666666667 0.05 0 25.0833333333333 0.05 0 25.375 0.05 0 25.6666666666667 0.05 0 25.9583333333333 0.05 0 26.25 0.05 0 26.5416666666667 0.05 0 26.8333333333333 0.05 0 27.125 0.05 0 27.4166666666667 0.05 0 27.7083333333333 0.05 0 28 0.05 0 28.2916666666667 0.05 0 28.5833333333333 0.05 0 28.875 0.05 0 29.1666666666667 0.05 0 29.4583333333333 0.05 0 29.75 0.05 0 30.0416666666667 0.05 0 30.3333333333333 0.05 0 30.625 0.05 0 30.9166666666667 0.05 0 31.2083333333333 0.05 0 31.5 0.05 0 31.7916666666667 0.05 0 32.0833333333333 0.05 0 32.375 0.05 0 32.6666666666667 0.05 0 32.9583333333333 0.05 0 33.25 0.05 0 33.5416666666667 0.05 0 33.8333333333333 0.05 0 34.125 0.05 0 34.4166666666667 0.05 0 34.7083333333333 0.05 0 35 0.05 0 0 0.1 0 0.291666666666667 0.1 0 0.583333333333333 0.1 0 0.875 0.1 0 1.16666666666667 0.1 0 1.45833333333333 0.1 0 1.75 0.1 0 2.04166666666667 0.1 0 2.33333333333333 0.1 0 2.625 0.1 0 2.91666666666667 0.1 0 3.20833333333333 0.1 0 3.5 0.1 0 3.79166666666667 0.1 0 4.08333333333333 0.1 0 4.375 0.1 0 4.66666666666667 0.1 0 4.95833333333333 0.1 0 5.25 0.1 0 5.54166666666667 0.1 0 5.83333333333333 0.1 0 6.125 0.1 0 6.41666666666667 0.1 0 6.70833333333333 0.1 0 7 0.1 0 7.29166666666667 0.1 0 7.58333333333333 0.1 0 7.875 0.1 0 8.16666666666667 0.1 0 8.45833333333333 0.1 0 8.75 0.1 0 9.04166666666667 0.1 0 9.33333333333333 0.1 0 9.625 0.1 0 9.91666666666667 0.1 0 10.2083333333333 0.1 0 10.5 0.1 0 10.7916666666667 0.1 0 11.0833333333333 0.1 0 11.375 0.1 0 11.6666666666667 0.1 0 11.9583333333333 0.1 0 12.25 0.1 0 12.5416666666667 0.1 0 12.8333333333333 0.1 0 13.125 0.1 0 13.4166666666667 0.1 0 13.7083333333333 0.1 0 14 0.1 0 14.2916666666667 0.1 0 14.5833333333333 0.1 0 14.875 0.1 0 15.1666666666667 0.1 0 15.4583333333333 0.1 0 15.75 0.1 0 16.0416666666667 0.1 0 16.3333333333333 0.1 0 16.625 0.1 0 16.9166666666667 0.1 0 17.2083333333333 0.1 0 17.5 0.1 0 17.7916666666667 0.1 0 18.0833333333333 0.1 0 18.375 0.1 0 18.6666666666667 0.1 0 18.9583333333333 0.1 0 19.25 0.1 0 19.5416666666667 0.1 0 19.8333333333333 0.1 0 20.125 0.1 0 20.4166666666667 0.1 0 20.7083333333333 0.1 0 21 0.1 0 21.2916666666667 0.1 0 21.5833333333333 0.1 0 21.875 0.1 0 22.1666666666667 0.1 0 22.4583333333333 0.1 0 22.75 0.1 0 23.0416666666667 0.1 0 23.3333333333333 0.1 0 23.625 0.1 0 23.9166666666667 0.1 0 24.2083333333333 0.1 0 24.5 0.1 0 24.7916666666667 0.1 0 25.0833333333333 0.1 0 25.375 0.1 0 25.6666666666667 0.1 0 25.9583333333333 0.1 0 26.25 0.1 0 26.5416666666667 0.1 0 26.8333333333333 0.1 0 27.125 0.1 0 27.4166666666667 0.1 0 27.7083333333333 0.1 0 28 0.1 0 28.2916666666667 0.1 0 28.5833333333333 0.1 0 28.875 0.1 0 29.1666666666667 0.1 0 29.4583333333333 0.1 0 29.75 0.1 0 30.0416666666667 0.1 0 30.3333333333333 0.1 0 30.625 0.1 0 30.9166666666667 0.1 0 31.2083333333333 0.1 0 31.5 0.1 0 31.7916666666667 0.1 0 32.0833333333333 0.1 0 32.375 0.1 0 32.6666666666667 0.1 0 32.9583333333333 0.1 0 33.25 0.1 0 33.5416666666667 0.1 0 33.8333333333333 0.1 0 34.125 0.1 0 34.4166666666667 0.1 0 34.7083333333333 0.1 0 35 0.1 0 0 0.15 0 0.291666666666667 0.15 0 0.583333333333333 0.15 0 0.875 0.15 0 1.16666666666667 0.15 0 1.45833333333333 0.15 0 1.75 0.15 0 2.04166666666667 0.15 0 2.33333333333333 0.15 0 2.625 0.15 0 2.91666666666667 0.15 0 3.20833333333333 0.15 0 3.5 0.15 0 3.79166666666667 0.15 0 4.08333333333333 0.15 0 4.375 0.15 0 4.66666666666667 0.15 0 4.95833333333333 0.15 0 5.25 0.15 0 5.54166666666667 0.15 0 5.83333333333333 0.15 0 6.125 0.15 0 6.41666666666667 0.15 0 6.70833333333333 0.15 0 7 0.15 0 7.29166666666667 0.15 0 7.58333333333333 0.15 0 7.875 0.15 0 8.16666666666667 0.15 0 8.45833333333333 0.15 0 8.75 0.15 0 9.04166666666667 0.15 0 9.33333333333333 0.15 0 9.625 0.15 0 9.91666666666667 0.15 0 10.2083333333333 0.15 0 10.5 0.15 0 10.7916666666667 0.15 0 11.0833333333333 0.15 0 11.375 0.15 0 11.6666666666667 0.15 0 11.9583333333333 0.15 0 12.25 0.15 0 12.5416666666667 0.15 0 12.8333333333333 0.15 0 13.125 0.15 0 13.4166666666667 0.15 0 13.7083333333333 0.15 0 14 0.15 0 14.2916666666667 0.15 0 14.5833333333333 0.15 0 14.875 0.15 0 15.1666666666667 0.15 0 15.4583333333333 0.15 0 15.75 0.15 0 16.0416666666667 0.15 0 16.3333333333333 0.15 0 16.625 0.15 0 16.9166666666667 0.15 0 17.2083333333333 0.15 0 17.5 0.15 0 17.7916666666667 0.15 0 18.0833333333333 0.15 0 18.375 0.15 0 18.6666666666667 0.15 0 18.9583333333333 0.15 0 19.25 0.15 0 19.5416666666667 0.15 0 19.8333333333333 0.15 0 20.125 0.15 0 20.4166666666667 0.15 0 20.7083333333333 0.15 0 21 0.15 0 21.2916666666667 0.15 0 21.5833333333333 0.15 0 21.875 0.15 0 22.1666666666667 0.15 0 22.4583333333333 0.15 0 22.75 0.15 0 23.0416666666667 0.15 0 23.3333333333333 0.15 0 23.625 0.15 0 23.9166666666667 0.15 0 24.2083333333333 0.15 0 24.5 0.15 0 24.7916666666667 0.15 0 25.0833333333333 0.15 0 25.375 0.15 0 25.6666666666667 0.15 0 25.9583333333333 0.15 0 26.25 0.15 0 26.5416666666667 0.15 0 26.8333333333333 0.15 0 27.125 0.15 0 27.4166666666667 0.15 0 27.7083333333333 0.15 0 28 0.15 0 28.2916666666667 0.15 0 28.5833333333333 0.15 0 28.875 0.15 0 29.1666666666667 0.15 0 29.4583333333333 0.15 0 29.75 0.15 0 30.0416666666667 0.15 0 30.3333333333333 0.15 0 30.625 0.15 0 30.9166666666667 0.15 0 31.2083333333333 0.15 0 31.5 0.15 0 31.7916666666667 0.15 0 32.0833333333333 0.15 0 32.375 0.15 0 32.6666666666667 0.15 0 32.9583333333333 0.15 0 33.25 0.15 0 33.5416666666667 0.15 0 33.8333333333333 0.15 0 34.125 0.15 0 34.4166666666667 0.15 0 34.7083333333333 0.15 0 35 0.15 0 0 0.2 0 0.291666666666667 0.2 0 0.583333333333333 0.2 0 0.875 0.2 0 1.16666666666667 0.2 0 1.45833333333333 0.2 0 1.75 0.2 0 2.04166666666667 0.2 0 2.33333333333333 0.2 0 2.625 0.2 0 2.91666666666667 0.2 0 3.20833333333333 0.2 0 3.5 0.2 0 3.79166666666667 0.2 0 4.08333333333333 0.2 0 4.375 0.2 0 4.66666666666667 0.2 0 4.95833333333333 0.2 0 5.25 0.2 0 5.54166666666667 0.2 0 5.83333333333333 0.2 0 6.125 0.2 0 6.41666666666667 0.2 0 6.70833333333333 0.
[...]
      <CellData>
        <DataArray type="Float64" Name="velocity_magnitude" format="ascii">
          0.00180570212447761 0.000210075137479528 0.00220553863454019 0.00544822542279287 0.00620300402343342 0.00687994384294252 0.00809513783506784 0.0114608487612501 0.0132679431339249 0.012158568585069 0.00970386382183604 0.0111765623230615 0.0189814366776675 0.0293834182107624 0.0387996540483785 0.0514306046027989 0.0852649106975591 0.152526514731867 0.205785648690845 0.210327447874646 0.179952717675347 0.132495895460799 0.0824395071245609 0.0367589912917571 0.00265752044625993 0.027538547959276 0.0424455042617922 0.0507975755021365 0.054326566879058 0.0548479583323043 0.0534366883329689 0.0506978899339526 0.0471054411570028 0.0433745281456575 0.0396346969169013 0.036248323843226 0.0332308500161101 0.0307162266899455 0.0286570131093864 0.027064838504026 0.0258764835009314 0.025052811034835 0.0245357171328188 0.024274623752768 0.0242268805255569 0.0243558376902129 0.024616754930476 0.0249633081178237 0.0253661801244101 0.0258026024940534 0.0262544397262987 0.0267080083989416 0.0271538648405196 0.0275858246274618 0.028000235907477 0.0283954397227268 0.0287709671311237 0.0291271018477549 0.029464349504982 0.029783176194359 0.0300838426052427 0.0303663945893276 0.0306307300075673 0.0308767232677471 0.0311043614735752 0.0313138663309952 0.0315057808019253 0.0316810080509793 0.0318408032082852 0.031986722211779 0.0321205376930567 0.0322441359786065 0.0323594060201027 0.0324681375072164 0.0325719313149006 0.0326721373674916 0.0327698130369257 0.0328657159963409 0.0329603101661627 0.0330538074505729 0.0331462014880692 0.0332373383342104 0.0333269499038866 0.0334147356153647 0.0335003687497757 0.0335835830749804 0.0336641315333654 0.0337418869292106 0.0338167360020473 0.0338887195285711 0.0339578412246938 0.0340242882683636 0.0340881213325517 0.0341496353212054 0.034208870865575 0.0342662049721025 0.0343215781944835 0.0343754607751524 0.0344276054153417 0.0344786460750487 0.0345280232459414 0.0345767001795775 0.0346235800998815 0.0346702914127996 0.0347147483768986 0.034759912769023 0.0348017848620366 0.0348459994041388 0.0348847520679156 0.0349290598770405 0.0349634521153426 0.0350098645167819 0.0350371858551965 0.035089844067828 0.035104059304074 0.0351721748535357 0.0351590124579384 0.0352645258671806 0.0351929187269162 0.0353792579921397 0.00321615059527831 0.00219891004987995 0.00873145213406208 0.0159235450185175 0.0184330654626261 0.0218972105674417 0.0270855692102988 0.0351619904724032 0.039547911397247 0.0397976501814354 0.0416755686724173 0.0533774690224042 0.0753434625525051 0.100475558511349 0.127208469181094 0.166328906041185 0.233698510724918 0.322705510498046 0.374153006608097 0.350755897114936 0.278228934057709 0.192749136758256 0.107932631455164 0.0309343528869779 0.0402867295802987 0.082081857042635 0.111863830570574 0.131022333359809 0.14144411391384 0.145307784495342 0.144590596998295 0.140588914671469 0.134194632183984 0.126656010964357 0.118551432011089 0.110648776466302 0.103259948219427 0.0967436646962032 0.0911769453664503 0.0866367393387391 0.0830644086348802 0.0803935515838507 0.0785144249876351 0.0773146445967021 0.0766754958118088 0.0765084956672484 0.0767543493228968 0.0772848957555155 0.0780074409059365 0.0788565935137728 0.07978250132653 0.0807476109956199 0.0817250363911827 0.0826962511383976 0.083649106540464 0.0845762035472705 0.0854730542935656 0.0863369350554192 0.0871658583328478 0.0879580418298457 0.0887116453707751 0.0894247984891081 0.090095781520916 0.0907232933728332 0.0913067174990828 0.0918463300755165 0.0923434135125062 0.0928002573805102 0.0932200547719039 0.0936067116991647 0.0939645963916333 0.0942982625023263 0.0946121740553824 0.0949104651989871 0.0951967454013906 0.0954739735596961 0.0957443906667372 0.0960095264747398 0.0962702452195783 0.0965268540988575 0.0967792085645996 0.0970268679584186 0.09726919685572 0.0975055219640832 0.0977351780355627 0.0979576479321297 0.0981725221714098 0.0983796346115557 0.0985789187486129 0.0987705789147848 0.0989548265161417 0.0991321479382936 0.099302887701218 0.0994676953687268 0.0996268880720525 0.0997811913404083 0.0999307537775995 0.100076360843343 0.100217868955554 0.100356204613702 0.100490784416186 0.100622889622283 0.100751236188358 0.100877889621661 0.101000326042618 0.101122233949587 0.101238720513302 0.101356761997736 0.10146676598401 0.101582351193217 0.101684452055311 0.101800171929307 0.101891125005641 0.102012161031435 0.102084622866378 0.102222303142103 0.102258909472833 0.10244067082154 0.102404886917123 0.10269854644925 0.0028923532283757 0.00654443237264064 0.0167638087352743 0.0268551292962047 0.0318977643842648 0.0387294946187898 0.0478272426305564 0.0593226798198749 0.0667329930856434 0.071234824163171 0.079837799463518 0.100163719441108 0.130442620213781 0.1632077508082 0.197408838827176 0.242081577349262 0.307709025997392 0.381043987572643 0.403446575574746 0.342522387655899 0.250801724948891 0.155149378646053 0.0658554823755669 0.0380594511726776 0.0916663225216894 0.138097918032131 0.173042593407749 0.197407665414624 0.212448650292232 0.219962749163812 0.221236842133156 0.218203237725806 0.211796226913949 0.203322881294141 0.193590348031709 0.183537882778212 0.173722426033673 0.164677387073364 0.156655485403504 0.149840844129714 0.144254349537232 0.139862395218185 0.136563244027603 0.134229684982355 0.132723460878141 0.131877970660525 0.131630478327725 0.131886738342016 0.13249054707851 0.133334559712056 0.1343417060882 0.135453867543273 0.136628126405233 0.137833513322534 0.139048136859312 0.140256809639853 0.141448637612434 0.142615398514017 0.143750289237887 0.144847273693712 0.145900802369058 0.14690586187796 0.147858199760652 0.148754628629216 0.149593307794968 0.15037393535374 0.151097811184769 0.151767755674137 0.152387899289866 0.152963370849155 0.153499921777689 0.154003530554449 0.154480024726091 0.154934758944484 0.155372364693678 0.155796594457688 0.156210249981196 0.156615203662308 0.157012476839936 0.15740238726051 0.157784702181791 0.158158835027856 0.158523991465 0.158879352825329 0.159224154591985 0.159557830484285 0.159879993248976 0.160190550503011 0.160489579456488 0.160777455271716 0.161054616360982 0.161321764936225 0.161579506679405 0.161828697463204 0.162069911136555 0.16230402738057 0.162531431092621 0.162752981521881 0.162968761872835 0.163179670043554 0.163385379673112 0.163587007370502 0.163783632756331 0.163976946091872 0.164165031698359 0.164350827155612 0.164530551890934 0.164709707203241 0.164880827029752 0.165054613534183 0.165216172308585 0.16538676923309 0.165536372378221 0.165707941673775 0.165839994634549 0.166021379772462 0.166122572688625 0.166335568343118 0.16637755433138 0.166686305222654 0.000798132954920606 0.0125202567174769 0.0259038077310908 0.0386447672402345 0.0466503486382638 0.0565377932527024 0.0686638792623607 0.0827086451405682 0.0931666145436554 0.101786515688334 0.115067669528344 0.139226569477163 0.171528061569051 0.204405894419046 0.23619938426503 0.274006664608205 0.325667907011817 0.374460683405814 0.363191788288897 0.274493301814923 0.179193412289071 0.0888075669964043 0.0486098599534727 0.0988002711228368 0.151240997373065 0.196691336059048 0.231985753164003 0.257626021555367 0.274540658509414 0.284148595731019 0.28721587375346 0.285665122641708 0.280335533069608 0.272419535347696 0.262753470976344 0.252288359428315 0.241684163812677 0.23155870611684 0.222283786136429 0.214134277341791 0.207217845154966 0.201559409892396 0.197098546807826 0.193730439996569 0.191323248917787 0.189735484251803 0.188758987389067 0.188429349951051 0.188595887591862 0.189118488920542 0.189897944241063 0.190860449253855 0.191950334764167 0.193125929902491 0.19435608198569 0.195617449281756 0.196891961309296 0.198165017740284 0.199424160666623 0.200658373324676 0.201857795654641 0.20301377053114 0.204119059781501 0.205168121914368 0.206157350441265 0.207085206603803 0.207952210964151 0.20876078325829 0.209514949307897 0.210219947700587 0.210881778068664 0.211506738777253 0.212100994859945 0.212670214762088 0.21321929335571 0.213752181271298 0.214271810845489 0.214780122185307 0.215278155021989 0.21576620931267 0.216244017732587 0.216710953779875 0.217166196272722 0.217608915612819 0.2180383679005 0.218454029497917 0.218855593353812 0.219243061058804 0.219616639464999 0.219976828464588 0.220324224081798 0.22065965619051 0.220983894701646 0.22129790004509 0.221602404225867 0.221898348348165 0.222186270142043 0.222467031660329 0.222740880367233 0.223008640076292 0.223270196725072 0.223526480832366 0.223776899887668 0.224022769578607 0.224262743495401 0.224499033104009 0.224728912649887 0.224956468074285 0.225176260897489 0.225396198016501 0.225605373793624 0.225819460837288 0.226016422589554 0.22622784204181 0.226408649568269 0.226623888780908 0.226779049904749 0.227014092793261 0.227122157445515 0.227426926918551 0.00371148634479862 0.0194475032991715 0.0358177438575491 0.0508602114299626 0.0614893945211382 0.0736143004284669 0.0877154598212389 0.10333520579611 0.115718049403229 0.126492422270663 0.141271281587424 0.165174152608396 0.194861887226661 0.222562713072164 0.246295861651298 0.272212407363869 0.306879986046234 0.330906197413917 0.284953992663653 0.187864090535097 0.103574537182603 0.0651888159618296 0.110120043891096 0.165380457263216 0.21511081583673 0.257945637766214 0.291549745125134 0.316373399557718 0.333187287914855 0.343226068278066 0.347082747731882 0.346477273079909 0.342128470874955 0.335075566409601 0.326090511516827 0.316052804374987 0.30561916893193 0.29540863388308 0.285833657923297 0.277209124105206 0.269694746748734 0.263360355500504 0.25818647551334 0.254100291155294 0.250994296370911 0.248741538344463 0.247207112742686 0.246196856040386 0.245771889417689 0.24579979049396 0.246164668857392 0.246783133434576 0.247591981078642 0.24854283982869 0.249598149720034 0.250728263277335 0.251909039694828 0.253120171074733 0.254343975533594 0.25556475792913 0.256768563291137 0.257943227957173 0.259078575168661 0.260166647592641 0.261201884070233 0.262181181633592 0.263103814440254 0.263971205640124 0.264786575158015 0.265554498488391 0.266280418232807 0.266970154886655 0.267629457100772 0.268263627659559 0.268877241898475 0.269473975163247 0.270056529552377 0.270626659696553 0.27118526560725 0.271732550214491 0.272268191085022 0.272791541425247 0.273301793024301 0.273798151527225 0.274279930911433 0.274746673358889 0.275198151199038 0.275634439561446 0.276055827696214 0.276462879647561 0.276856265890647 0.277236860629907 0.27760549716654 0.277963155459904 0.278310623746476 0.278648835691272 0.278978387953799 0.279300104880445 0.279614311449373 0.279921753710228 0.280222438779621 0.280517154813949 0.280805517372491 0.281088581012721 0.281365375874797 0.281637620808879 0.281903296764745 0.282165535700515 0.282420262532911 0.28267350161763 0.282917033405194 0.28316276135994 0.283394039689662 0.283634775837873 0.283850980399979 0.284091605008914 0.28428573348764 0.284537995606965 0.284691496797446 0.28499219839174 0.00700169811783268 0.0273585245010114 0.0458946428908204 0.0627613429181081 0.0751487473669131 0.0884113984932539 0.103289596348645 0.119281123938866 0.131943586409541 0.142620074120567 0.156280734654159 0.177339681847785 0.201905784172609 0.221939700978157 0.235357273893914 0.247978005744488 0.26672936576651 0.26857308940356 0.189635297995482 0.105661324246297 0.0792313380167571 0.123078028416697 0.180217275124334 0.233579332904654 0.280292249240241 0.320169223791092 0.351495623586323 0.374714648142474 0.390518846088427 0.400030716270958 0.403844642221549 0.403487317654105 0.399617438144111 0.393159126073086 0.384814121181038 0.375374737323644 0.365449694318107 0.355614125747757 0.346267635915378 0.33772042246297 0.330144904205014 0.323628178727394 0.31817348111543 0.313730998704218 0.310215083693598 0.307519145528818 0.30553058305172 0.304086462879298 0.303117418546114 0.302634141939952 0.302533077490731 0.302731092308495 0.303164772386093 0.30378450245481 0.304550603642509 0.305430512351796 0.306396615197672 0.307424873379042 0.308493897044973 0.309584495030292 0.310679546227528 0.31176410281675 0.312825590441624 0.313854009830404 0.314842061336389 0.315785145797776 0.316681224108809 0.317530538286987 0.318335220129886 0.319098824623698 0.319825829818723 0.320521147343276 0.321189680390751 0.321835960820469 0.322463879544382 0.323076523317249 0.323676107582158 0.324264002566036 0.324840822744021 0.32540657456288 0.325960817209671 0.326502847086641 0.327031847719112 0.327547046545157 0.328047799924631 0.328533695585356 0.329004552724385 0.329460478556249 0.329901787875636 0.330329046262317 0.330742921900952 0.331144258942155 0.33153386770948 0.331912674370629 0.332281437464443 0.332641022591963 0.332992005660503 0.333335134061159 0.333670736316957 0.333999469484829 0.334321385435949 0.334637155060726 0.334946505479022 0.335250308480363 0.335547821281533 0.33584043916108 0.33612658562132 0.336408778471187 0.336683806907511 0.336956489800141 0.337220318050053 0.337484784460626 0.33773668335616 0.337995012833738 0.338232864845768 0.338488869118863 0.338707219468754 0.338969497963993 0.339151028848462 0.339444366109726 0.0142793104748652 0.0351144480158347 0.0556954207398672 0.0734496482376253 0.0864793486038452 0.0997649794826194 0.114261630771563 0.129355915456407 0.140692555886337 0.149494960514733 0.160380304068346 0.177286677279189 0.195761969573863 0.207347267493581 0.209854449151447 0.209396957500156 0.214528922122062 0.198656677671039 0.0890059717949654 0.08502949573428 0.136406748355064 0.195759629120478 0.252087291270021 0.30229191280455 0.345687508192617 0.382414500771728 0.411217507062254 0.432532564425233 0.446961632815385 0.455521489114396 0.458843780724118 0.45825067887603 0.454393796988573 0.448138978151292 0.440148845516085 0.431149804865008 0.421700324808495 0.412321086060842 0.403375779955267 0.395145425273895 0.387788797423176 0.381387436648866 0.375948227742328 0.371430047143324 0.367759411730518 0.364844291001727 0.362585106762899 0.360882924946147 0.359557573120195 0.358673151964364 0.358170124719366 0.357976743143566 0.358037612492245 0.358307741511937 0.358749817328054 0.359332063207759 0.360026491842517 0.360807903629159 0.361653317546486 0.362541783722261 0.363454430554211 0.364374668974215 0.365288437571503 0.366184406954335 0.367054081025159 0.367891760849876 0.368694364498479 0.369461115478642 0.370193131333481 0.370892950705784 0.371564038499635 0.372210310644247 0.372835712921993 0.373443881453773 0.374037895593609 0.37462013237757 0.375192210954441 0.37575502214552 0.376308814992412 0.376853333975818 0.377387966240664 0.377911907177242 0.378424293214819 0.378924337859112 0.37941140306036 0.379885083749323 0.380345202323982 0.380791851234231 0.381225317005784 0.381646111340845 0.382054837997847 0.382452251318951 0.382839072844196 0.383216117088774 0.383584048543517 0.383943614987932 0.384295311985543 0.384639773159562 0.3849772758595 0.385308368122912 0.385633092976783 0.385952005302803 0.386264882155995 0.386572443751094 0.386874087437839 0.387170965295388 0.387461798289142 0.387748661174124 0.388028940338397 0.388306598067331 0.388576319324609 0.388845892643025 0.389104527197361 0.389367750658863 0.389613650152793 0.389873528548807 0.390102254380343 0.390364947017885 0.390559492145433 0.39084096311398 0.0179396571971827 0.0433061387746314 0.064256865964469 0.0821698165624287 0.0947152497175224 0.106900358464343 0.119898769993566 0.133052260435982 0.141867148725734 0.147546928235022 0.154680026029292 0.167023888446636 0.179487182755711 0.182955945809071 0.174945145450745 0.161942697217039 0.155797660221299 0.115920913625396 0.0714489396328551 0.147680404682391 0.212154048604468 0.27108915762234 0.324013079955407 0.370286743764238 0.409949968931499 0.443361081472895 0.469525795391281 0.488843952486639 0.501816168517994 0.509335509355964 0.512042434283476 0.511036500279353 0.50697454651424 0.500687921119064 0.492824144595653 0.484070888073257 0.474952673229764 0.465946071290889 0.457378764599827 0.44949772502408 0.442438333833005 0.436265672519362 0.430978986367077 0.426535753267579 0.422866062390596 0.419884981988828 0.417503162946315 0.415632599994393 0.414189689184895 0.413025964251917 0.412218227256643 0.411713558066476 0.411462493214892 0.411425388347217 0.411569020069738 0.411864547290028 0.412285870412212 0.412808779906243 0.413410626743429 0.414070372682525 0.414768822952996 0.415488948829875 0.41621619890025 0.416938730860193 0.41764751491053 0.418336287143086 0.419001355722251 0.419641277772208 0.420256442560036 0.420848603322009 0.421420397975572 0.421974897499745 0.422515212499466 0.423044181587722 0.42356414980133 0.424076843270202 0.424583327539755 0.425084043024155 0.425578890649947 0.426067360503961 0.426548666559782 0.427021894875332 0.427486119849649 0.427940521007536 0.428384440595358 0.428817451865277 0.429239347176158 0.429650169026882 0.430050136816134 0.430439669463427 0.430819264235724 0.431189545973666 0.431551104635408 0.431904605523183 0.432250577422057 0.432589617509265 0.432922101592996 0.433248524000391 0.433569073448839 0.433884173013259 0.434193818893718 0.434498446970688 0.434797840376826 0.435092583922468 0.435382154468527 0.435667509188652 0.435947568239861 0.436224070979901 0.436494823921683 0.436763156063319 0.437024608136863 0.43728571993705 0.437537446694138 0.437792778867425 0.438033440149067 0.438285346675046 0.43851124475064 0.438763834609544 0.438958633137246 0.439220475286362 0.0285730204741758 0.0500429579333291 0.0716678320386611 0.0884194521267919 0.0993104309301505 0.109428287449977 0.120078218569884 0.130429747782597 0.135770012658882 0.137486167984547 0.140390335608535 0.148265178158378 0.155253008497201 0.151270578920055 0.133642409276005 0.108851504757703 0.092217683656643 0.0271506167021839 0.155703498945084 0.228728415302027 0.291829417748764 0.346908446388395 0.395168341227139 0.436867687589994 0.472455248718482 0.502329706358694 0.525709896432961 0.542940082988644 0.554406244461148 0.560869250619326 0.562938099908591 0.561487431506507 0.557162330092467 0.55075853577952 0.542913142345399 0.534288928314902 0.525389154785405 0.516658936303583 0.50839749218596 0.500822221988948 0.49404543234939 0.488113845608952 0.483015434570202 0.478701775506753 0.475102193909758 0.472134340630283 0.469715026176978 0.467764030002258 0.466210675837456 0.464941444070616 0.463947198730335 0.463227920314123 0.462744739471727 0.462466411440885 0.462365451913353 0.462416961693804 0.462597635171508 0.462885249282697 0.463258549791201 0.463697460850273 0.464183445606401 0.464699921261142 0.465232626188435 0.46576987960889 0.466302696514906 0.466824742419229 0.467332138449206 0.467823142006518 0.468297740723503 0.46875720102955 0.469203609898307 0.469639448179449 0.470067225362257 0.470489196045944 0.470907163462005 0.471322373485749 0.471735485732731 0.472146614234151 0.47255541219745 0.472961193453061 0.473363056583757 0.473760018338048 0.474151115625066 0.474535506150392 0.474912514456441 0.475281687092101 0.475642775508081 0.475995758357746 0.476340770983377 0.476678122378505 0.477008184391122 0.477331435024891 0.477648313599554 0.477959320264407 0.478264829642122 0.478565274513739 0.478860892796242 0.479152028331093 0.47943876270765 0.479721386440896 0.479999828906556 0.480274404541705 0.480544878516791 0.480811706412926 0.481074411752162 0.481333778366195 0.481588873892913 0.481841153041656 0.482088751703688 0.48233447387294 0.482574545364615 0.482814480928126 0.48304664802434 0.483281959474573 0.483505103686573 0.483737575515575 0.483948596559605 0.484180664161147 0.484364218613481 0.484599136917805 0.0304461605284361 0.0572656901191984 0.0766357554374106 0.091712273613939 0.0999819256055032 0.107087901099482 0.114562271539081 0.121551660249386 0.122791912856996 0.119871043265322 0.118168329997159 0.12182062292691 0.123784966467943 0.112623491451063 0.0866711661153073 0.0535159563666242 0.0269