<?xml version="1.0"?>
<VTKFile type="UnstructuredGrid" version="0.1" byte_order="LittleEndian">
  <UnstructuredGrid>
    <Piece NumberOfPoints="1071" NumberOfCells="1000">
      <Points>
        <DataArray type="Float64" NumberOfComponents="3" format="ascii">
          0 0 0 0.04 0 0 0.08 0 0 0.12 0 0 0.16 0 0 0.2 0 0 0.24 0 0 0.28 0 0 0.32 0 0 0.36 0 0 0.4 0 0 0.44 0 0 0.48 0 0 0.52 0 0 0.56 0 0 0.6 0 0 0.64 0 0 0.68 0 0 0.72 0 0 0.76 0 0 0.8 0 0 0.84 0 0 0.88 0 0 0.92 0 0 0.96 0 0 1 0 0 1.04 0 0 1.08 0 0 1.12 0 0 1.16 0 0 1.2 0 0 1.24 0 0 1.28 0 0 1.32 0 0 1.36 0 0 1.4 0 0 1.44 0 0 1.48 0 0 1.52 0 0 1.56 0 0 1.6 0 0 1.64 0 0 1.68 0 0 1.72 0 0 1.76 0 0 1.8 0 0 1.84 0 0 1.88 0 0 1.92 0 0 1.96 0 0 2 0 0 0 0.05 0 0.04 0.05 0 0.08 0.05 0 0.12 0.05 0 0.16 0.05 0 0.2 0.05 0 0.24 0.05 0 0.28 0.05 0 0.32 0.05 0 0.36 0.05 0 0.4 0.05 0 0.44 0.05 0 0.48 0.05 0 0.52 0.05 0 0.56 0.05 0 0.6 0.05 0 0.64 0.05 0 0.68 0.05 0 0.72 0.05 0 0.76 0.05 0 0.8 0.05 0 0.84 0.05 0 0.88 0.05 0 0.92 0.05 0 0.96 0.05 0 1 0.05 0 1.04 0.05 0 1.08 0.05 0 1.12 0.05 0 1.16 0.05 0 1.2 0.05 0 1.24 0.05 0 1.28 0.05 0 1.32 0.05 0 1.36 0.05 0 1.4 0.05 0 1.44 0.05 0 1.48 0.05 0 1.52 0.05 0 1.56 0.05 0 1.6 0.05 0 1.64 0.05 0 1.68 0.05 0 1.72 0.05 0 1.76 0.05 0 1.8 0.05 0 1.84 0.05 0 1.88 0.05 0 1.92 0.05 0 1.96 0.05 0 2 0.05 0 0 0.1 0 0.04 0.1 0 0.08 0.1 0 0.12 0.1 0 0.16 0.1 0 0.2 0.1 0 0.24 0.1 0 0.28 0.1 0 0.32 0.1 0 0.36 0.1 0 0.4 0.1 0 0.44 0.1 0 0.48 0.1 0 0.52 0.1 0 0.56 0.1 0 0.6 0.1 0 0.64 0.1 0 0.68 0.1 0 0.72 0.1 0 0.76 0.1 0 0.8 0.1 0 0.84 0.1 0 0.88 0.1 0 0.92 0.1 0 0.96 0.1 0 1 0.1 0 1.04 0.1 0 1.08 0.1 0 1.12 0.1 0 1.16 0.1 0 1.2 0.1 0 1.24 0.1 0 1.28 0.1 0 1.32 0.1 0 1.36 0.1 0 1.4 0.1 0 1.44 0.1 0 1.48 0.1 0 1.52 0.1 0 1.56 0.1 0 1.6 0.1 0 1.64 0.1 0 1.68 0.1 0 1.72 0.1 0 1.76 0.1 0 1.8 0.1 0 1.84 0.1 0 1.88 0.1 0 1.92 0.1 0 1.96 0.1 0 2 0.1 0 0 0.15 0 0.04 0.15 0 0.08 0.15 0 0.12 0.15 0 0.16 0.15 0 0.2 0.15 0 0.24 0.15 0 0.28 0.15 0 0.32 0.15 0 0.36 0.15 0 0.4 0.15 0 0.44 0.15 0 0.48 0.15 0 0.52 0.15 0 0.56 0.15 0 0.6 0.15 0 0.64 0.15 0 0.68 0.15 0 0.72 0.15 0 0.76 0.15 0 0.8 0.15 0 0.84 0.15 0 0.88 0.15 0 0.92 0.15 0 0.96 0.15 0 1 0.15 0 1.04 0.15 0 1.08 0.15 0 1.12 0.15 0 1.16 0.15 0 1.2 0.15 0 1.24 0.15 0 1.28 0.15 0 1.32 0.15 0 1.36 0.15 0 1.4 0.15 0 1.44 0.15 0 1.48 0.15 0 1.52 0.15 0 1.56 0.15 0 1.6 0.15 0 1.64 0.15 0 1.68 0.15 0 1.72 0.15 0 1.76 0.15 0 1.8 0.15 0 1.84 0.15 0 1.88 0.15 0 1.92 0.15 0 1.96 0.15 0 2 0.15 0 0 0.2 0 0.04 0.2 0 0.08 0.2 0 0.12 0.2 0 0.16 0.2 0 0.2 0.2 0 0.24 0.2 0 0.28 0.2 0 0.32 0.2 0 0.36 0.2 0 0.4 0.2 0 0.44 0.2 0 0.48 0.2 0 0.52 0.2 0 0.56 0.2 0 0.6 0.2 0 0.64 0.2 0 0.68 0.2 0 0.72 0.2 0 0.76 0.2 0 0.8 0.2 0 0.84 0.2 0 0.88 0.2 0 0.92 0.2 0 0.96 0.2 0 1 0.2 0 1.04 0.2 0 1.08 0.2 0 1.12 0.2 0 1.16 0.2 0 1.2 0.2 0 1.24 0.2 0 1.28 0.2 0 1.32 0.2 0 1.36 0.2 0 1.4 0.2 0 1.44 0.2 0 1.48 0.2 0 1.52 0.2 0 1.56 0.2 0 1.6 0.2 0 1.64 0.2 0 1.68 0.2 0 1.72 0.2 0 1.76 0.2 0 1.8 0.2 0 1.84 0.2 0 1.88 0.2 0 1.92 0.2 0 1.96 0.2 0 2 0.2 0 0 0.25 0 0.04 0.25 0 0.08 0.25 0 0.12 0.25 0 0.16 0.25 0 0.2 0.25 0 0.24 0.25 0 0.28 0.25 0 0.32 0.25 0 0.36 0.25 0 0.4 0.25 0 0.44 0.25 0 0.48 0.25 0 0.52 0.25 0 0.56 0.25 0 0.6 0.25 0 0.64 0.25 0 0.68 0.25 0 0.72 0.25 0 0.76 0.25 0 0.8 0.25 0 0.84 0.25 0 0.88 0.25 0 0.92 0.25 0 0.96 0.25 0 1 0.25 0 1.04 0.25 0 1.08 0.25 0 1.12 0.25 0 1.16 0.25 0 1.2 0.25 0 1.24 0.25 0 1.28 0.25 0 1.32 0.25 0 1.36 0.25 0 1.4 0.25 0 1.44 0.25 0 1.48 0.25 0 1.52 0.25 0 1.56 0.25 0 1.6 0.25 0 1.64 0.25 0 1.68 0.25 0 1.72 0.25 0 1.76 0.25 0 1.8 0.25 0 1.84 0.25 0 1.88 0.25 0 1.92 0.25 0 1.96 0.25 0 2 0.25 0 0 0.3 0 0.04 0.3 0 0.08 0.3 0 0.12 0.3 0 0.16 0.3 0 0.2 0.3 0 0.24 0.3 0 0.28 0.3 0 0.32 0.3 0 0.36 0.3 0 0.4 0.3 0 0.44 0.3 0 0.48 0.3 0 0.52 0.3 0 0.56 0.3 0 0.6 0.3 0 0.64 0.3 0 0.68 0.3 0 0.72 0.3 0 0.76 0.3 0 0.8 0.3 0 0.84 0.3 0 0.88 0.3 0 0.92 0.3 0 0.96 0.3 0 1 0.3 0 1.04 0.3 0 1.08 0.3 0 1.12 0.3 0 1.16 0.3 0 1.2 0.3 0 1.24 0.3 0 1.28 0.3 0 1.32 0.3 0 1.36 0.3 0 1.4 0.3 0 1.44 0.3 0 1.48 0.3 0 1.52 0.3 0 1.56 0.3 0 1.6 0.3 0 1.64 0.3 0 1.68 0.3 0 1.72 0.3 0 1.76 0.3 0 1.8 0.3 0 1.84 0.3 0 1.88 0.3 0 1.92 0.3 0 1.96 0.3 0 2 0.3 0 0 0.35 0 0.04 0.35 0 0.08 0.35 0 0.12 0.35 0 0.16 0.35 0 0.2 0.35 0 0.24 0.35 0 0.28 0.35 0 0.32 0.35 0 0.36 0.35 0 0.4 0.35 0 0.44 0.35 0 0.48 0.35 0 0.52 0.35 0 0.56 0.35 0 0.6 0.35 0 0.64 0.35 0 0.68 0.35 0 0.72 0.35 0 0.76 0.35 0 0.8 0.35 0 0.84 0.35 0 0.88 0.35 0 0.92 0.35 0 0.96 0.35 0 1 0.35 0 1.04 0.35 0 1.08 0.35 0 1.12 0.35 0 1.16 0.35 0 1.2 0.35 0 1.24 0.35 0 1.28 0.35 0 1.32 0.35 0 1.36 0.35 0 1.4 0.35 0 1.44 0.35 0 1.48 0.35 0 1.52 0.35 0 1.56 0.35 0 1.6 0.35 0 1.64 0.35 0 1.68 0.35 0 1.72 0.35 0 1.76 0.35 0 1.8 0.35 0 1.84 0.35 0 1.88 0.35 0 1.92 0.35 0 1.96 0.35 0 2 0.35 0 0 0.4 0 0.04 0.4 0 0.08 0.4 0 0.12 0.4 0 0.16 0.4 0 0.2 0.4 0 0.24 0.4 0 0.28 0.4 0 0.32 0.4 0 0.36 0.4 0 0.4 0.4 0 0.44 0.4 0 0.48 0.4 0 0.52 0.4 0 0.56 0.4 0 0.6 0.4 0 0.64 0.4 0 0.68 0.4 0 0.72 0.4 0 0.76 0.4 0 0.8 0.4 0 0.84 0.4 0 0.88 0.4 0 0.92 0.4 0 0.96 0.4 0 1 0.4 0 1.04 0.4 0 1.08 0.4 0 1.12 0.4 0 1.16 0.4 0 1.2 0.4 0 1.24 0.4 0 1.28 0.4 0 1.32 0.4 0 1.36 0.4 0 1.4 0.4 0 1.44 0.4 0 1.48 0.4 0 1.52 0.4 0 1.56 0.4 0 1.6 0.4 0 1.64 0.4 0 1.68 0.4 0 1.72 0.4 0 1.76 0.4 0 1.8 0.4 0 1.84 0.4 0 1.88 0.4 0 1.92 0.4 0 1.96 0.4 0 2 0.4 0 0 0.45 0 0.04 0.45 0 0.08 0.45 0 0.12 0.45 0 0.16 0.45 0 0.2 0.45 0 0.24 0.45 0 0.28 0.45 0 0.32 0.45 0 0.36 0.45 0 0.4 0.45 0 0.44 0.45 0 0.48 0.45 0 0.52 0.45 0 0.56 0.45 0 0.6 0.45 0 0.64 0.45 0 0.68 0.45 0 0.72 0.45 0 0.76 0.45 0 0.8 0.45 0 0.84 0.45 0 0.88 0.45 0 0.92 0.45 0 0.96 0.45 0 1 0.45 0 1.04 0.45 0 1.08 0.45 0 1.12 0.45 0 1.16 0.45 0 1.2 0.45 0 1.24 0.45 0 1.28 0.45 0 1.32 0.45 0 1.36 0.45 0 1.4 0.45 0 1.44 0.45 0 1.48 0.45 0 1.52 0.45 0 1.56 0.45 0 1.6 0.45 0 1.64 0.45 0 1.68 0.45 0 1.72 0.45 0 1.76 0.45 0 1.8 0.45 0 1.84 0.45 0 1.88 0.45 0 1.92 0.45 0 1.96 0.45 0 2 0.45 0 0 0.5 0 0.04 0.5 0 0.08 0.5 0 0.12 0.5 0 0.16 0.5 0 0.2 0.5 0 0.24 0.5 0 0.28 0.5 0 0.32 0.5 0 0.36 0.5 0 0.4 0.5 0 0.44 0.5 0 0.48 0.5 0 0.52 0.5 0 0.56 0.5 0 0.6 0.5 0 0.64 0.5 0 0.68 0.5 0 0.72 0.5 0 0.76 0.5 0 0.8 0.5 0 0.84 0.5 0 0.88 0.5 0 0.92 0.5 0 0.96 0.5 0 1 0.5 0 1.04 0.5 0 1.08 0.5 0 1.12 0.5 0 1.16 0.5 0 1.2 0.5 0 1.24 0.5 0 1.28 0.5 0 1.32 0.5 0 1.36 0.5 0 1.4 0.5 0 1.44 0.5 0 1.48 0.5 0 1.52 0.5 0 1.56 0.5 0 1.6 0.5 0 1.64 0.5 0 1.68 0.5 0 1.72 0.5 0 1.76 0.5 0 1.8 0.5 0 1.84 0.5 0 1.88 0.5 0 1.92 0.5 0 1.96 0.5 0 2 0.5 0 0 0.55 0 0.04 0.55 0 0.08 0.55 0 0.12 0.55 0 0.16 0.55 0 0.2 0.55 0 0.24 0.55 0 0.28 0.55 0 0.32 0.55 0 0.36 0.55 0 0.4 0.55 0 0.44 0.55 0 0.48 0.55 0 0.52 0.55 0 0.56 0.55 0 0.6 0.55 0 0.64 0.55 0 0.68 0.55 0 0.72 0.55 0 0.76 0.55 0 0.8 0.55 0 0.84 0.55 0 0.88 0.55 0 0.92 0.55 0 0.96 0.55 0 1 0.55 0 1.04 0.55 0 1.08 0.55 0 1.12 0.55 0 1.16 0.55 0 1.2 0.55 0 1.24 0.55 0 1.28 0.55 0 1.32 0.55 0 1.36 0.55 0 1.4 0.55 0 1.44 0.55 0 1.48 0.55 0 1.52 0.55 0 1.56 0.55 0 1.6 0.55 0 1.64 0.55 0 1.68 0.55 0 1.72 0.55 0 1.76 0.55 0 1.8 0.55 0 1.84 0.55 0 1.88 0.55 0 1.92 0.55 0 1.96 0.55 0 2 0.55 0 0 0.6 0 0.04 0.6 0 0.08 0.6 0 0.12 0.6 0 0.16 0.6 0 0.2 0.6 0 0.24 0.6 0 0.28 0.6 0 0.32 0.6 0 0.36 0.6 0 0.4 0.6 0 0.44 0.6 0 0.48 0.6 0 0.52 0.6 0 0.56 0.6 0 0.6 0.6 0 0.64 0.6 0 0.68 0.6 0 0.72 0.6 0 0.76 0.6 0 0.8 0.6 0 0.84 0.6 0 0.88 0.6 0 0.92 0.6 0 0.96 0.6 0 1 0.6 0 1.04 0.6 0 1.08 0.6 0 1.12 0.6 0 1.16 0.6 0 1.2 0.6 0 1.24 0.6 0 1.28 0.6 0 1.32 0.6 0 1.36 0.6 0 1.4 0.6 0 1.44 0.6 0 1.48 0.6 0 1.52 0.6 0 1.56 0.6 0 1.6 0.6 0 1.64 0.6 0 1.68 0.6 0 1.72 0.6 0 1.76 0.6 0 1.8 0.6 0 1.84 0.6 0 1.88 0.6 0 1.92 0.6 0 1.96 0.6 0 2 0.6 0 0 0.65 0 0.04 0.65 0 0.08 0.65 0 0.12 0.65 0 0.16 0.65 0 0.2 0.65 0 0.24 0.65 0 0.28 0.65 0 0.32 0.65 0 0.36 0.65 0 0.4 0.65 0 0.44 0.65 0 0.48 0.65 0 0.52 0.65 0 0.56 0.65 0 0.6 0.65 0 0.64 0.65 0 0.68 0.65 0 0.72 0.65 0 0.76 0.65 0 0.8 0.65 0 0.84 0.65 0 0.88 0.65 0 0.92 0.65 0 0.96 0.65 0 1 0.65 0 1.04 0.65 0 1.08 0.65 0 1.12 0.65 0 1.16 0.65 0 1.2 0.65 0 1.24 0.65 0 1.28 0.65 0 1.32 0.65 0 1.36 0.65 0 1.4 0.65 0 1.44 0.65 0 1.48 0.65 0 1.52 0.65 0 1.56 0.65 0 1.6 0.65 0 1.64 0.65 0 1.68 0.65 0 1.72 0.65 0 1.76 0.65 0 1.8 0.65 0 1.84 0.65 0 1.88 0.65 0 1.92 0.65 0 1.96 0.65 0 2 0.65 0 0 0.7 0 0.04 0.7 0 0.08 0.7 0 0.12 0.7 0 0.16 0.7 0 0.2 0.7 0 0.24 0.7 0 0.28 0.7 0 0.32 0.7 0 0.36 0.7 0 0.4 0.7 0 0.44 0.7 0 0.48 0.7 0 0.52 0.7 0 0.56 0.7 0 0.6 0.7 0 0.64 0.7 0 0.68 0.7 0 0.72 0.7 0 0.76 0.7 0 0.8 0.7 0 0.84 0.7 0 0.88 0.7 0 0.92 0.7 0 0.96 0.7 0 1 0.7 0 1.04 0.7 0 1.08 0.7 0 1.12 0.7 0 1.16 0.7 0 1.2 0.7 0 1.24 0.7 0 1.28 0.7 0 1.32 0.7 0 1.36 0.7 0 1.4 0.7 0 1.44 0.7 0 1.48 0.7 0 1.52 0.7 0 1.56 0.7 0 1.6 0.7 0 1.64 0.7 0 1.68 0.7 0 1.72 0.7 0 1.76 0.7 0 1.8 0.7 0 1.84 0.7 0 1.88 0.7 0 1.92 0.7 0 1.96 0.7 0 2 0.7 0 0 0.75 0 0.04 0.75 0 0.08 0.75 0 0.12 0.75 0 0.16 0.75 0 0.2 0.75 0 0.24 0.75 0 0.28 0.75 0 0.32 0.75 0 0.36 0.75 0 0.4 0.75 0 0.44 0.75 0 0.48 0.75 0 0.52 0.75 0 0.56 0.75 0 0.6 0.75 0 0.64 0.75 0 0.68 0.75 0 0.72 0.75 0 0.76 0.75 0 0.8 0.75 0 0.84 0.75 0 0.88 0.75 0 0.92 0.75 0 0.96 0.75 0 1 0.75 0 1.04 0.75 0 1.08 0.75 0 1.12 0.75 0 1.16 0.75 0 1.2 0.75 0 1.24 0.75 0 1.28 0.75 0 1.32 0.75 0 1.36 0.75 0 1.4 0.75 0 1.44 0.75 0 1.48 0.75 0 1.52 0.75 0 1.56 0.75 0 1.6 0.75 0 1.64 0.75 0 1.68 0.75 0 1.72 0.75 0 1.76 0.75 0 1.8 0.75 0 1.84 0.75 0 1.88 0.75 0 1.92 0.75 0 1.96 0.75 0 2 0.75 0 0 0.8 0 0.04 0.8 0 0.08 0.8 0 0.12 0.8 0 0.16 0.8 0 0.2 0.8 0 0.24 0.8 0 0.28 0.8 0 0.32 0.8 0 0.36 0.8 0 0.4 0.8 0 0.44 0.8 0 0.48 0.8 0 0.52 0.8 0 0.56 0.8 0 0.6 0.8 0 0.64 0.8 0 0.68 0.8 0 0.72 0.8 0 0.76 0.8 0 0.8 0.8 0 0.84 0.8 0 0.88 0.8 0 0.92 0.8 0 0.96 0.8 0 1 0.8 0 1.04 0.8 0 1.08 0.8 0 1.12 0.8 0 1.16 0.8 0 1.2 0.8 0 1.24 0.8 0 1.28 0.8 0 1.32 0.8 0 1.36 0.8 0 1.4 0.8 0 1.44 0.8 0 1.48 0.8 0 1.52 0.8 0 1.56 0.8 0 1.6 0.8 0 1.64 0.8 0 1.68 0.8 0 1.72 0.8 0 1.76 0.8 0 1.8 0.8 0 1.84 0.8 0 1.88 0.8 0 1.92 0.8 0 1.96 0.8 0 2 0.8 0 0 0.85 0 0.04 0.85 0 0.08 0.85 0 0.12 0.85 0 0.16 0.85 0 0.2 0.85 0 0.24 0.85 0 0.28 0.85 0 0.32 0.85 0 0.36 0.85 0 0.4 0.85 0 0.44 0.85 0 0.48 0.85 0 0.52 0.85 0 0.56 0.85 0 0
[...]
      <CellData>
        <DataArray type="Float64" Name="velocity_magnitude" format="ascii">
          0.14642986513196 0.147510455002537 0.147736177294388 0.148614483284005 0.14852918471736 0.149066980698599 0.148946825903022 0.149230092612318 0.149177663162911 0.149301041198851 0.149301282291919 0.149348304124146 0.149363901277334 0.149383679921108 0.149396805041464 0.14940751636172 0.149415854633695 0.149422361526065 0.149427468406984 0.149431485467983 0.14943466128038 0.149437193326737 0.149439235775742 0.14944090928382 0.149442307857824 0.149443503395242 0.149444550736048 0.149445490914582 0.149446353522251 0.149447159619241 0.149447920219824 0.149448656706725 0.149449318363289 0.149450085062999 0.149450422350605 0.149451701353751 0.149450713691337 0.149454071423623 0.149449504285708 0.149457037641855 0.149448090194402 0.149456590549012 0.149452462288241 0.149444996972756 0.149467813704234 0.149423669228576 0.14948373067864 0.149417815985532 0.149480932392787 0.14946833466589 0.415803320854286 0.416598808443707 0.416191964789332 0.417076386921792 0.416862531589215 0.417540316062174 0.417435504673659 0.41784224352879 0.417834318602803 0.418035646450237 0.418079597850051 0.418172045717339 0.418221107794955 0.418268797975497 0.418304529181997 0.418333356556022 0.418356410071467 0.418374791704358 0.418389511135569 0.418401328621789 0.418410855228923 0.41841858448905 0.4184249108489 0.418430148829196 0.418434545957009 0.418438299086367 0.418441560441788 0.418444445376 0.418447043066889 0.41844941740108 0.418451608908581 0.418453667245574 0.418455533160077 0.418457458777346 0.418458735465659 0.418461162933448 0.418460574944547 0.418465489801392 0.418460157639408 0.418470294221351 0.418458967358257 0.418470950409455 0.418464210651126 0.418458681698296 0.418482687035889 0.418435665492818 0.418503970737935 0.41843160726682 0.418506261276388 0.418491020499484 0.655745486138265 0.65628452294795 0.65562475856112 0.656310519901109 0.655965261794267 0.656585999674559 0.656434276956526 0.656845761969889 0.656832192941203 0.657049505776414 0.657103908695478 0.657209925848775 0.657271401966336 0.657329546550768 0.65737474460805 0.657411256100187 0.657440740688843 0.657464362518834 0.657483324531545 0.65749856878861 0.657510857806019 0.657520820864792 0.657528966491006 0.657535701456195 0.657541352784886 0.657546175449711 0.657550369362857 0.65755408984639 0.657557450337693 0.657560537882022 0.657563405309067 0.657566118385185 0.657568604245887 0.65757116730858 0.657572983191024 0.65757608688731 0.657575847802096 0.657581597108674 0.657576172138865 0.657587607790295 0.6575751564005 0.657589741715056 0.657579702224238 0.657579509781207 0.657596843075229 0.657558567280114 0.657617609433604 0.657554272698189 0.657620981336031 0.657605665947251 0.865869172946076 0.866340239256949 0.865589931913136 0.866100119161911 0.865592681910557 0.866091399270402 0.865824109186007 0.866177263779189 0.866103930753791 0.866294191033479 0.866325339351993 0.866418792446631 0.866473360247218 0.866527343483888 0.866571424338196 0.866607976576824 0.866638484255405 0.866663624745696 0.866684330135446 0.866701384546934 0.866715438732448 0.866727055051399 0.866736706369168 0.866744785114279 0.866751611454142 0.866757448421133 0.866762506726272 0.866766950385882 0.866770911027551 0.866774487984174 0.86677774451395 0.866780768762874 0.866783477406183 0.866786238334212 0.866788132130481 0.866791423480272 0.866791097559147 0.866797241382182 0.866791391295261 0.866804053977853 0.866790032073437 0.86680840442127 0.86679344021474 0.866802514684956 0.866809097077534 0.866786033876433 0.866830150220157 0.866780198964642 0.866834765208267 0.866815464758273 1.04593211601178 1.0463677438555 1.04563854135711 1.04605938959928 1.04546790783506 1.04588315598376 1.04551522427738 1.04580874412976 1.04566349222219 1.04581011819247 1.04579998160531 1.04586264717418 1.04589354790107 1.04592797765795 1.04595725030823 1.0459817916627 1.04600275893726 1.04602024409042 1.04603474595073 1.04604675227013 1.0460566689592 1.04606486860237 1.04607167737648 1.04607736936888 1.04608217577241 1.04608628429559 1.04608984757742 1.04609298921176 1.04609580138858 1.04609836143752 1.04610071062986 1.04610293071875 1.04610491070068 1.04610705874068 1.04610835322446 1.0461112541661 1.04611036635801 1.04611648663267 1.04610979902379 1.04612335796871 1.04610717108137 1.04612893692334 1.0461081744303 1.04612556244298 1.04612041011729 1.04611091521401 1.04613869176543 1.04610122906328 1.04614192700786 1.04611869083747 1.19597839637176 1.19639501232538 1.19571917278937 1.19610018697578 1.1954626673362 1.19582059478328 1.1953673891763 1.19560350526744 1.19538477494636 1.1954798272626 1.19542054408725 1.19544339656835 1.19544275933256 1.19545079858138 1.19545969263363 1.1954679515637 1.19547619091617 1.19548377967751 1.19549058500272 1.19549662189106 1.19550189953838 1.19550647033497 1.1955104089743 1.19551379347765 1.19551669934299 1.19551919917979 1.19552135770195 1.19552323048895 1.19552486611683 1.19552630827022 1.19552757468042 1.19552874379265 1.19552968089992 1.19553083800514 1.19553111567437 1.19553315677631 1.19553125804722 1.19553686912286 1.19552898279913 1.19554305655991 1.19552459065799 1.19554964802258 1.19552327693247 1.1955494676747 1.19553277069157 1.19553811123304 1.19554969351848 1.19552592001631 1.195553329064 1.19552716897519 1.31600742809607 1.31640995744801 1.31578611184055 1.31615512359851 1.31550645385848 1.31584148786535 1.31533740971514 1.31553809337692 1.31526537619657 1.31531806309233 1.31521564216316 1.31519962470201 1.31516582554738 1.31514396271509 1.31512773260363 1.31511443657156 1.3151044577759 1.31509674750575 1.31509071674062 1.31508601338982 1.31508230849311 1.3150793552074 1.31507697275267 1.3150750209472 1.31507339320689 1.3150720085833 1.31507080677031 1.31506974390907 1.31506878570168 1.31506791510339 1.315067099246 1.3150663867015 1.31506560287381 1.31506521454157 1.31506404239285 1.31506485629752 1.31506168359535 1.31506648203581 1.31505722010611 1.31507135473469 1.31505047836305 1.31507783654738 1.31504591619136 1.31507887493762 1.31505119603935 1.3150683760623 1.31506462472598 1.31505241754815 1.31506702172548 1.3150388158087 1.40602505128965 1.40641344566146 1.4058291743851 1.40619606124792 1.40554626474478 1.40587049727733 1.40533332033384 1.40550904421591 1.40519635886065 1.40521498002743 1.4050777554684 1.40502897741676 1.40496697830549 1.40491945474672 1.40488158274343 1.40484982633635 1.40482437175306 1.40480383844795 1.40478722535164 1.40477383052869 1.40476299913551 1.40475419167669 1.40474697736325 1.40474100497795 1.40473599181755 1.40473171446929 1.40472799771987 1.40472470669353 1.40472173769665 1.40471902130149 1.40471648417715 1.40471415347293 1.40471182627933 1.404709985412 1.40470739951326 1.40470694258021 1.40470245633806 1.4047062973336 1.4046956811374 1.40470962327453 1.40468672281536 1.40471585365868 1.4046796523901 1.40471828869614 1.40468212306947 1.40470955162291 1.40469372765089 1.40469182690984 1.40469632519318 1.40466738693271 1.46603638404013 1.46641754291187 1.46586054869326 1.46622992960913 1.46558548388205 1.46590965114191 1.46535765225583 1.46552210558985 1.46518730769849 1.46518517085355 1.46502563837258 1.46495414361617 1.46487159392254 1.46480439918123 1.4647490772564 1.46470177047544 1.46466269537973 1.46463039253351 1.46460367354032 1.46458165872539 1.46456350656851 1.46454849284316 1.46453601649171 1.46452557289139 1.46451674414199 1.46450918993976 1.46450263640376 1.46449686694576 1.46449171052287 1.46448704476963 1.4644827532894 1.46447883435229 1.46447505382488 1.46447189353366 1.46446807688281 1.46446653442171 1.46446097351017 1.46446399839993 1.4644523068506 1.46446593795932 1.4644414493065 1.46447151662348 1.46443203299911 1.46447415615757 1.46443162080354 1.46446564654802 1.46444082850232 1.46444582262281 1.46444277622782 1.46441352747273 1.49604121774406 1.49641775689706 1.49587316216221 1.49624389685383 1.49560239832459 1.4959263891638 1.49536742440166 1.49552596087033 1.49518017506766 1.4951672709982 1.49499637988969 1.49491319141348 1.49482014111542 1.49474294406011 1.49467882325256 1.49462376423998 1.49457798315228 1.49453996932163 1.49450842204372 1.49448235423815 1.49446081450099 1.49444297176941 1.49442812835764 1.4944156942718 1.49440517786172 1.49439617677503 1.4943883657787 1.49438148665465 1.49437533526827 1.49436976387853 1.49436463598924 1.4943599375199 1.49435542102366 1.49435157045334 1.49434709025055 1.49434494302578 1.49433877526658 1.49434132063927 1.49432902792803 1.49434245719343 1.4943171523141 1.49434771469062 1.49430663416341 1.4943506576367 1.4943050301796 1.4943426717351 1.49431341977126 1.4943222521972 1.49431544585237 1.4942862856626 1.49604121774406 1.49641775689706 1.49587316216221 1.49624389685383 1.49560239832459 1.4959263891638 1.49536742440166 1.49552596087033 1.49518017506766 1.4951672709982 1.49499637988969 1.49491319141348 1.49482014111542 1.49474294406011 1.49467882325256 1.49462376423998 1.49457798315228 1.49453996932163 1.49450842204372 1.49448235423815 1.49446081450099 1.49444297176941 1.49442812835763 1.4944156942718 1.49440517786172 1.49439617677503 1.4943883657787 1.49438148665465 1.49437533526827 1.49436976387853 1.49436463598924 1.49435993751989 1.49435542102366 1.49435157045333 1.49434709025055 1.49434494302578 1.49433877526658 1.49434132063928 1.49432902792803 1.49434245719343 1.4943171523141 1.49434771469062 1.49430663416341 1.4943506576367 1.4943050301796 1.4943426717351 1.49431341977126 1.4943222521972 1.49431544585237 1.4942862856626 1.46603638404013 1.46641754291187 1.46586054869326 1.46622992960913 1.46558548388206 1.46590965114191 1.46535765225583 1.46552210558985 1.46518730769849 1.46518517085355 1.46502563837258 1.46495414361617 1.46487159392254 1.46480439918123 1.4647490772564 1.46470177047544 1.46466269537973 1.46463039253351 1.46460367354032 1.46458165872539 1.46456350656851 1.46454849284316 1.46453601649171 1.46452557289139 1.46451674414199 1.46450918993976 1.46450263640376 1.46449686694576 1.46449171052287 1.46448704476963 1.4644827532894 1.46447883435229 1.46447505382488 1.46447189353366 1.46446807688281 1.46446653442171 1.46446097351017 1.46446399839993 1.4644523068506 1.46446593795932 1.4644414493065 1.46447151662348 1.46443203299911 1.46447415615757 1.46443162080354 1.46446564654802 1.46444082850232 1.46444582262281 1.46444277622782 1.46441352747273 1.40602505128965 1.40641344566146 1.4058291743851 1.40619606124792 1.40554626474478 1.40587049727733 1.40533332033384 1.40550904421591 1.40519635886065 1.40521498002744 1.4050777554684 1.40502897741676 1.40496697830549 1.40491945474672 1.40488158274343 1.40484982633635 1.40482437175306 1.40480383844795 1.40478722535164 1.40477383052869 1.40476299913551 1.40475419167669 1.40474697736325 1.40474100497795 1.40473599181755 1.40473171446929 1.40472799771987 1.40472470669353 1.40472173769665 1.40471902130149 1.40471648417715 1.40471415347293 1.40471182627933 1.40470998541201 1.40470739951326 1.40470694258021 1.40470245633806 1.4047062973336 1.4046956811374 1.40470962327453 1.40468672281536 1.40471585365868 1.4046796523901 1.40471828869614 1.40468212306947 1.40470955162291 1.40469372765089 1.40469182690984 1.40469632519319 1.40466738693271 1.31600742809607 1.31640995744801 1.31578611184055 1.31615512359851 1.31550645385848 1.31584148786535 1.31533740971514 1.31553809337692 1.31526537619657 1.31531806309233 1.31521564216316 1.31519962470201 1.31516582554738 1.31514396271509 1.31512773260363 1.31511443657156 1.3151044577759 1.31509674750575 1.31509071674062 1.31508601338982 1.31508230849311 1.3150793552074 1.31507697275267 1.3150750209472 1.31507339320689 1.3150720085833 1.31507080677031 1.31506974390907 1.31506878570168 1.31506791510339 1.315067099246 1.3150663867015 1.31506560287381 1.31506521454157 1.31506404239285 1.31506485629752 1.31506168359535 1.31506648203581 1.31505722010611 1.31507135473469 1.31505047836305 1.31507783654738 1.31504591619136 1.31507887493762 1.31505119603935 1.3150683760623 1.31506462472598 1.31505241754815 1.31506702172548 1.3150388158087 1.19597839637176 1.19639501232538 1.19571917278936 1.19610018697578 1.1954626673362 1.19582059478328 1.1953673891763 1.19560350526744 1.19538477494636 1.1954798272626 1.19542054408725 1.19544339656835 1.19544275933256 1.19545079858138 1.19545969263363 1.1954679515637 1.19547619091617 1.19548377967751 1.19549058500272 1.19549662189106 1.19550189953838 1.19550647033497 1.1955104089743 1.19551379347765 1.19551669934299 1.19551919917979 1.19552135770195 1.19552323048895 1.19552486611683 1.19552630827022 1.19552757468042 1.19552874379265 1.19552968089992 1.19553083800514 1.19553111567437 1.19553315677631 1.19553125804722 1.19553686912286 1.19552898279913 1.19554305655991 1.19552459065799 1.19554964802258 1.19552327693247 1.1955494676747 1.19553277069157 1.19553811123304 1.19554969351848 1.19552592001631 1.195553329064 1.19552716897519 1.04593211601178 1.0463677438555 1.04563854135711 1.04605938959928 1.04546790783506 1.04588315598376 1.04551522427738 1.04580874412976 1.04566349222219 1.04581011819247 1.04579998160531 1.04586264717418 1.04589354790107 1.04592797765795 1.04595725030823 1.0459817916627 1.04600275893726 1.04602024409042 1.04603474595073 1.04604675227013 1.0460566689592 1.04606486860237 1.04607167737648 1.04607736936889 1.04608217577241 1.04608628429559 1.04608984757742 1.04609298921176 1.04609580138859 1.04609836143752 1.04610071062987 1.04610293071875 1.04610491070068 1.04610705874068 1.04610835322447 1.0461112541661 1.04611036635801 1.04611648663267 1.04610979902379 1.04612335796871 1.04610717108137 1.04612893692334 1.0461081744303 1.04612556244298 1.04612041011729 1.04611091521401 1.04613869176543 1.04610122906328 1.04614192700786 1.04611869083747 0.865869172946075 0.866340239256949 0.865589931913136 0.866100119161911 0.865592681910557 0.866091399270402 0.865824109186007 0.866177263779189 0.866103930753791 0.866294191033479 0.866325339351993 0.866418792446631 0.866473360247219 0.866527343483889 0.866571424338197 0.866607976576825 0.866638484255406 0.866663624745697 0.866684330135447 0.866701384546935 0.86671543873245 0.8667270550514 0.866736706369169 0.86674478511428 0.866751611454143 0.866757448421134 0.866762506726273 0.866766950385883 0.866770911027552 0.866774487984174 0.866777744513951 0.866780768762874 0.866783477406184 0.866786238334213 0.866788132130482 0.866791423480272 0.866791097559148 0.866797241382183 0.866791391295261 0.866804053977854 0.866790032073437 0.86680840442127 0.866793440214741 0.866802514684956 0.866809097077534 0.866786033876433 0.866830150220158 0.866780198964642 0.866834765208267 0.866815464758273 0.655745486138265 0.65628452294795 0.65562475856112 0.656310519901109 0.655965261794267 0.656585999674559 0.656434276956527 0.65684576196989 0.656832192941203 0.657049505776414 0.657103908695479 0.657209925848775 0.657271401966336 0.657329546550769 0.657374744608051 0.657411256100188 0.657440740688844 0.657464362518835 0.657483324531546 0.65749856878861 0.65751085780602 0.657520820864793 0.657528966491006 0.657535701456196 0.657541352784886 0.657546175449712 0.657550369362858 0.657554089846391 0.657557450337693 0.657560537882022 0.657563405309068 0.657566118385185 0.657568604245888 0.65757116730858 0.657572983191024 0.65757608688731 0.657575847802096 0.657581597108674 0.657576172138865 0.657587607790295 0.6575751564005 0.657589741715056 0.657579702224238 0.657579509781207 0.657596843075229 0.657558567280114 0.657617609433604 0.657554272698189 0.657620981336031 0.657605665947251 0.415803320854286 0.416598808443707 0.416191964789331 0.417076386921791 0.416862531589215 0.417540316062174 0.417435504673659 0.41784224352879 0.417834318602802 0.418035646450237 0.418079597850051 0.418172045717339 0.418221107794955 0.418268797975497 0.418304529181998 0.418333356556022 0.418356410071467 0.418374791704358 0.418389511135569 0.418401328621789 0.418410855228923 0.418418584489051 0.418424910848901 0.418430148829197 0.418434545957009 0.418438299086367 0.418441560441788 0.418444445376 0.418447043066889 0.41844941740108 0.418451608908581 0.418453667245574 0.418455533160077 0.418457458777346 0.41845873546566 0.418461162933448 0.418460574944547 0.418465489801392 0.418460157639408 0.418470294221351 0.418458967358257 0.418470950409455 0.418464210651126 0.418458681698296 0.418482687035889 0.418435665492817 0.418503970737934 0.41843160726682 0.418506261276387 0.418491020499484 0.14642986513196 0.147510455002537 0.147736177294388 0.148614483284004 0.148529184717359 0.149066980698598 0.148946825903021 0.149230092612317 0.14917766316291 0.14930104119885 0.149301282291919 0.149348304124146 0.149363901277334 0.149383679921108 0.149396805041464 0.14940751636172 0.149415854633695 0.149422361526064 0.149427468406984 0.149431485467983 0.149434661280379 0.149437193326737 0.149439235775741 0.149440909283819 0.149442307857824 0.149443503395241 0.149444550736047 0.149445490914582 0.149446353522251 0.149447159619241 0.149447920219824 0.149448656706725 0.149449318363289 0.149450085062998 0.149450422350604 0.149451701353751 0.149450713691337 0.149454071423622 0.149449504285707 0.149457037641855 0.149448090194402 0.149456590549011 0.149452462288241 0.149444996972756 0.149467813704233 0.149423669228575 0.14948373067864 0.149417815985531 0.149480932392787 0.149468334665889
        </DataArray>
        <DataArray type="Float64" Name="pressure" format="ascii">