<?xml version="1.0"?>
<VTKFile type="UnstructuredGrid" version="0.1" byte_order="LittleEndian">
  <UnstructuredGrid>
    <Piece NumberOfPoints="1071" NumberOfCells="1000">
      <Points>
        <DataArray type="Float64" NumberOfComponents="3" format="ascii">
          0 0 0 0.04 0 0 0.08 0 0 0.12 0 0 0.16 0 0 0.2 0 0 0.24 0 0 0.28 0 0 0.32 0 0 0.36 0 0 0.4 0 0 0.44 0 0 0.48 0 0 0.52 0 0 0.56 0 0 0.6 0 0 0.64 0 0 0.68 0 0 0.72 0 0 0.76 0 0 0.8 0 0 0.84 0 0 0.88 0 0 0.92 0 0 0.96 0 0 1 0 0 1.04 0 0 1.08 0 0 1.12 0 0 1.16 0 0 1.2 0 0 1.24 0 0 1.28 0 0 1.32 0 0 1.36 0 0 1.4 0 0 1.44 0 0 1.48 0 0 1.52 0 0 1.56 0 0 1.6 0 0 1.64 0 0 1.68 0 0 1.72 0 0 1.76 0 0 1.8 0 0 1.84 0 0 1.88 0 0 1.92 0 0 1.96 0 0 2 0 0 0 0.05 0 0.04 0.05 0 0.08 0.05 0 0.12 0.05 0 0.16 0.05 0 0.2 0.05 0 0.24 0.05 0 0.28 0.05 0 0.32 0.05 0 0.36 0.05 0 0.4 0.05 0 0.44 0.05 0 0.48 0.05 0 0.52 0.05 0 0.56 0.05 0 0.6 0.05 0 0.64 0.05 0 0.68 0.05 0 0.72 0.05 0 0.76 0.05 0 0.8 0.05 0 0.84 0.05 0 0.88 0.05 0 0.92 0.05 0 0.96 0.05 0 1 0.05 0 1.04 0.05 0 1.08 0.05 0 1.12 0.05 0 1.16 0.05 0 1.2 0.05 0 1.24 0.05 0 1.28 0.05 0 1.32 0.05 0 1.36 0.05 0 1.4 0.05 0 1.44 0.05 0 1.48 0.05 0 1.52 0.05 0 1.56 0.05 0 1.6 0.05 0 1.64 0.05 0 1.68 0.05 0 1.72 0.05 0 1.76 0.05 0 1.8 0.05 0 1.84 0.05 0 1.88 0.05 0 1.92 0.05 0 1.96 0.05 0 2 0.05 0 0 0.1 0 0.04 0.1 0 0.08 0.1 0 0.12 0.1 0 0.16 0.1 0 0.2 0.1 0 0.24 0.1 0 0.28 0.1 0 0.32 0.1 0 0.36 0.1 0 0.4 0.1 0 0.44 0.1 0 0.48 0.1 0 0.52 0.1 0 0.56 0.1 0 0.6 0.1 0 0.64 0.1 0 0.68 0.1 0 0.72 0.1 0 0.76 0.1 0 0.8 0.1 0 0.84 0.1 0 0.88 0.1 0 0.92 0.1 0 0.96 0.1 0 1 0.1 0 1.04 0.1 0 1.08 0.1 0 1.12 0.1 0 1.16 0.1 0 1.2 0.1 0 1.24 0.1 0 1.28 0.1 0 1.32 0.1 0 1.36 0.1 0 1.4 0.1 0 1.44 0.1 0 1.48 0.1 0 1.52 0.1 0 1.56 0.1 0 1.6 0.1 0 1.64 0.1 0 1.68 0.1 0 1.72 0.1 0 1.76 0.1 0 1.8 0.1 0 1.84 0.1 0 1.88 0.1 0 1.92 0.1 0 1.96 0.1 0 2 0.1 0 0 0.15 0 0.04 0.15 0 0.08 0.15 0 0.12 0.15 0 0.16 0.15 0 0.2 0.15 0 0.24 0.15 0 0.28 0.15 0 0.32 0.15 0 0.36 0.15 0 0.4 0.15 0 0.44 0.15 0 0.48 0.15 0 0.52 0.15 0 0.56 0.15 0 0.6 0.15 0 0.64 0.15 0 0.68 0.15 0 0.72 0.15 0 0.76 0.15 0 0.8 0.15 0 0.84 0.15 0 0.88 0.15 0 0.92 0.15 0 0.96 0.15 0 1 0.15 0 1.04 0.15 0 1.08 0.15 0 1.12 0.15 0 1.16 0.15 0 1.2 0.15 0 1.24 0.15 0 1.28 0.15 0 1.32 0.15 0 1.36 0.15 0 1.4 0.15 0 1.44 0.15 0 1.48 0.15 0 1.52 0.15 0 1.56 0.15 0 1.6 0.15 0 1.64 0.15 0 1.68 0.15 0 1.72 0.15 0 1.76 0.15 0 1.8 0.15 0 1.84 0.15 0 1.88 0.15 0 1.92 0.15 0 1.96 0.15 0 2 0.15 0 0 0.2 0 0.04 0.2 0 0.08 0.2 0 0.12 0.2 0 0.16 0.2 0 0.2 0.2 0 0.24 0.2 0 0.28 0.2 0 0.32 0.2 0 0.36 0.2 0 0.4 0.2 0 0.44 0.2 0 0.48 0.2 0 0.52 0.2 0 0.56 0.2 0 0.6 0.2 0 0.64 0.2 0 0.68 0.2 0 0.72 0.2 0 0.76 0.2 0 0.8 0.2 0 0.84 0.2 0 0.88 0.2 0 0.92 0.2 0 0.96 0.2 0 1 0.2 0 1.04 0.2 0 1.08 0.2 0 1.12 0.2 0 1.16 0.2 0 1.2 0.2 0 1.24 0.2 0 1.28 0.2 0 1.32 0.2 0 1.36 0.2 0 1.4 0.2 0 1.44 0.2 0 1.48 0.2 0 1.52 0.2 0 1.56 0.2 0 1.6 0.2 0 1.64 0.2 0 1.68 0.2 0 1.72 0.2 0 1.76 0.2 0 1.8 0.2 0 1.84 0.2 0 1.88 0.2 0 1.92 0.2 0 1.96 0.2 0 2 0.2 0 0 0.25 0 0.04 0.25 0 0.08 0.25 0 0.12 0.25 0 0.16 0.25 0 0.2 0.25 0 0.24 0.25 0 0.28 0.25 0 0.32 0.25 0 0.36 0.25 0 0.4 0.25 0 0.44 0.25 0 0.48 0.25 0 0.52 0.25 0 0.56 0.25 0 0.6 0.25 0 0.64 0.25 0 0.68 0.25 0 0.72 0.25 0 0.76 0.25 0 0.8 0.25 0 0.84 0.25 0 0.88 0.25 0 0.92 0.25 0 0.96 0.25 0 1 0.25 0 1.04 0.25 0 1.08 0.25 0 1.12 0.25 0 1.16 0.25 0 1.2 0.25 0 1.24 0.25 0 1.28 0.25 0 1.32 0.25 0 1.36 0.25 0 1.4 0.25 0 1.44 0.25 0 1.48 0.25 0 1.52 0.25 0 1.56 0.25 0 1.6 0.25 0 1.64 0.25 0 1.68 0.25 0 1.72 0.25 0 1.76 0.25 0 1.8 0.25 0 1.84 0.25 0 1.88 0.25 0 1.92 0.25 0 1.96 0.25 0 2 0.25 0 0 0.3 0 0.04 0.3 0 0.08 0.3 0 0.12 0.3 0 0.16 0.3 0 0.2 0.3 0 0.24 0.3 0 0.28 0.3 0 0.32 0.3 0 0.36 0.3 0 0.4 0.3 0 0.44 0.3 0 0.48 0.3 0 0.52 0.3 0 0.56 0.3 0 0.6 0.3 0 0.64 0.3 0 0.68 0.3 0 0.72 0.3 0 0.76 0.3 0 0.8 0.3 0 0.84 0.3 0 0.88 0.3 0 0.92 0.3 0 0.96 0.3 0 1 0.3 0 1.04 0.3 0 1.08 0.3 0 1.12 0.3 0 1.16 0.3 0 1.2 0.3 0 1.24 0.3 0 1.28 0.3 0 1.32 0.3 0 1.36 0.3 0 1.4 0.3 0 1.44 0.3 0 1.48 0.3 0 1.52 0.3 0 1.56 0.3 0 1.6 0.3 0 1.64 0.3 0 1.68 0.3 0 1.72 0.3 0 1.76 0.3 0 1.8 0.3 0 1.84 0.3 0 1.88 0.3 0 1.92 0.3 0 1.96 0.3 0 2 0.3 0 0 0.35 0 0.04 0.35 0 0.08 0.35 0 0.12 0.35 0 0.16 0.35 0 0.2 0.35 0 0.24 0.35 0 0.28 0.35 0 0.32 0.35 0 0.36 0.35 0 0.4 0.35 0 0.44 0.35 0 0.48 0.35 0 0.52 0.35 0 0.56 0.35 0 0.6 0.35 0 0.64 0.35 0 0.68 0.35 0 0.72 0.35 0 0.76 0.35 0 0.8 0.35 0 0.84 0.35 0 0.88 0.35 0 0.92 0.35 0 0.96 0.35 0 1 0.35 0 1.04 0.35 0 1.08 0.35 0 1.12 0.35 0 1.16 0.35 0 1.2 0.35 0 1.24 0.35 0 1.28 0.35 0 1.32 0.35 0 1.36 0.35 0 1.4 0.35 0 1.44 0.35 0 1.48 0.35 0 1.52 0.35 0 1.56 0.35 0 1.6 0.35 0 1.64 0.35 0 1.68 0.35 0 1.72 0.35 0 1.76 0.35 0 1.8 0.35 0 1.84 0.35 0 1.88 0.35 0 1.92 0.35 0 1.96 0.35 0 2 0.35 0 0 0.4 0 0.04 0.4 0 0.08 0.4 0 0.12 0.4 0 0.16 0.4 0 0.2 0.4 0 0.24 0.4 0 0.28 0.4 0 0.32 0.4 0 0.36 0.4 0 0.4 0.4 0 0.44 0.4 0 0.48 0.4 0 0.52 0.4 0 0.56 0.4 0 0.6 0.4 0 0.64 0.4 0 0.68 0.4 0 0.72 0.4 0 0.76 0.4 0 0.8 0.4 0 0.84 0.4 0 0.88 0.4 0 0.92 0.4 0 0.96 0.4 0 1 0.4 0 1.04 0.4 0 1.08 0.4 0 1.12 0.4 0 1.16 0.4 0 1.2 0.4 0 1.24 0.4 0 1.28 0.4 0 1.32 0.4 0 1.36 0.4 0 1.4 0.4 0 1.44 0.4 0 1.48 0.4 0 1.52 0.4 0 1.56 0.4 0 1.6 0.4 0 1.64 0.4 0 1.68 0.4 0 1.72 0.4 0 1.76 0.4 0 1.8 0.4 0 1.84 0.4 0 1.88 0.4 0 1.92 0.4 0 1.96 0.4 0 2 0.4 0 0 0.45 0 0.04 0.45 0 0.08 0.45 0 0.12 0.45 0 0.16 0.45 0 0.2 0.45 0 0.24 0.45 0 0.28 0.45 0 0.32 0.45 0 0.36 0.45 0 0.4 0.45 0 0.44 0.45 0 0.48 0.45 0 0.52 0.45 0 0.56 0.45 0 0.6 0.45 0 0.64 0.45 0 0.68 0.45 0 0.72 0.45 0 0.76 0.45 0 0.8 0.45 0 0.84 0.45 0 0.88 0.45 0 0.92 0.45 0 0.96 0.45 0 1 0.45 0 1.04 0.45 0 1.08 0.45 0 1.12 0.45 0 1.16 0.45 0 1.2 0.45 0 1.24 0.45 0 1.28 0.45 0 1.32 0.45 0 1.36 0.45 0 1.4 0.45 0 1.44 0.45 0 1.48 0.45 0 1.52 0.45 0 1.56 0.45 0 1.6 0.45 0 1.64 0.45 0 1.68 0.45 0 1.72 0.45 0 1.76 0.45 0 1.8 0.45 0 1.84 0.45 0 1.88 0.45 0 1.92 0.45 0 1.96 0.45 0 2 0.45 0 0 0.5 0 0.04 0.5 0 0.08 0.5 0 0.12 0.5 0 0.16 0.5 0 0.2 0.5 0 0.24 0.5 0 0.28 0.5 0 0.32 0.5 0 0.36 0.5 0 0.4 0.5 0 0.44 0.5 0 0.48 0.5 0 0.52 0.5 0 0.56 0.5 0 0.6 0.5 0 0.64 0.5 0 0.68 0.5 0 0.72 0.5 0 0.76 0.5 0 0.8 0.5 0 0.84 0.5 0 0.88 0.5 0 0.92 0.5 0 0.96 0.5 0 1 0.5 0 1.04 0.5 0 1.08 0.5 0 1.12 0.5 0 1.16 0.5 0 1.2 0.5 0 1.24 0.5 0 1.28 0.5 0 1.32 0.5 0 1.36 0.5 0 1.4 0.5 0 1.44 0.5 0 1.48 0.5 0 1.52 0.5 0 1.56 0.5 0 1.6 0.5 0 1.64 0.5 0 1.68 0.5 0 1.72 0.5 0 1.76 0.5 0 1.8 0.5 0 1.84 0.5 0 1.88 0.5 0 1.92 0.5 0 1.96 0.5 0 2 0.5 0 0 0.55 0 0.04 0.55 0 0.08 0.55 0 0.12 0.55 0 0.16 0.55 0 0.2 0.55 0 0.24 0.55 0 0.28 0.55 0 0.32 0.55 0 0.36 0.55 0 0.4 0.55 0 0.44 0.55 0 0.48 0.55 0 0.52 0.55 0 0.56 0.55 0 0.6 0.55 0 0.64 0.55 0 0.68 0.55 0 0.72 0.55 0 0.76 0.55 0 0.8 0.55 0 0.84 0.55 0 0.88 0.55 0 0.92 0.55 0 0.96 0.55 0 1 0.55 0 1.04 0.55 0 1.08 0.55 0 1.12 0.55 0 1.16 0.55 0 1.2 0.55 0 1.24 0.55 0 1.28 0.55 0 1.32 0.55 0 1.36 0.55 0 1.4 0.55 0 1.44 0.55 0 1.48 0.55 0 1.52 0.55 0 1.56 0.55 0 1.6 0.55 0 1.64 0.55 0 1.68 0.55 0 1.72 0.55 0 1.76 0.55 0 1.8 0.55 0 1.84 0.55 0 1.88 0.55 0 1.92 0.55 0 1.96 0.55 0 2 0.55 0 0 0.6 0 0.04 0.6 0 0.08 0.6 0 0.12 0.6 0 0.16 0.6 0 0.2 0.6 0 0.24 0.6 0 0.28 0.6 0 0.32 0.6 0 0.36 0.6 0 0.4 0.6 0 0.44 0.6 0 0.48 0.6 0 0.52 0.6 0 0.56 0.6 0 0.6 0.6 0 0.64 0.6 0 0.68 0.6 0 0.72 0.6 0 0.76 0.6 0 0.8 0.6 0 0.84 0.6 0 0.88 0.6 0 0.92 0.6 0 0.96 0.6 0 1 0.6 0 1.04 0.6 0 1.08 0.6 0 1.12 0.6 0 1.16 0.6 0 1.2 0.6 0 1.24 0.6 0 1.28 0.6 0 1.32 0.6 0 1.36 0.6 0 1.4 0.6 0 1.44 0.6 0 1.48 0.6 0 1.52 0.6 0 1.56 0.6 0 1.6 0.6 0 1.64 0.6 0 1.68 0.6 0 1.72 0.6 0 1.76 0.6 0 1.8 0.6 0 1.84 0.6 0 1.88 0.6 0 1.92 0.6 0 1.96 0.6 0 2 0.6 0 0 0.65 0 0.04 0.65 0 0.08 0.65 0 0.12 0.65 0 0.16 0.65 0 0.2 0.65 0 0.24 0.65 0 0.28 0.65 0 0.32 0.65 0 0.36 0.65 0 0.4 0.65 0 0.44 0.65 0 0.48 0.65 0 0.52 0.65 0 0.56 0.65 0 0.6 0.65 0 0.64 0.65 0 0.68 0.65 0 0.72 0.65 0 0.76 0.65 0 0.8 0.65 0 0.84 0.65 0 0.88 0.65 0 0.92 0.65 0 0.96 0.65 0 1 0.65 0 1.04 0.65 0 1.08 0.65 0 1.12 0.65 0 1.16 0.65 0 1.2 0.65 0 1.24 0.65 0 1.28 0.65 0 1.32 0.65 0 1.36 0.65 0 1.4 0.65 0 1.44 0.65 0 1.48 0.65 0 1.52 0.65 0 1.56 0.65 0 1.6 0.65 0 1.64 0.65 0 1.68 0.65 0 1.72 0.65 0 1.76 0.65 0 1.8 0.65 0 1.84 0.65 0 1.88 0.65 0 1.92 0.65 0 1.96 0.65 0 2 0.65 0 0 0.7 0 0.04 0.7 0 0.08 0.7 0 0.12 0.7 0 0.16 0.7 0 0.2 0.7 0 0.24 0.7 0 0.28 0.7 0 0.32 0.7 0 0.36 0.7 0 0.4 0.7 0 0.44 0.7 0 0.48 0.7 0 0.52 0.7 0 0.56 0.7 0 0.6 0.7 0 0.64 0.7 0 0.68 0.7 0 0.72 0.7 0 0.76 0.7 0 0.8 0.7 0 0.84 0.7 0 0.88 0.7 0 0.92 0.7 0 0.96 0.7 0 1 0.7 0 1.04 0.7 0 1.08 0.7 0 1.12 0.7 0 1.16 0.7 0 1.2 0.7 0 1.24 0.7 0 1.28 0.7 0 1.32 0.7 0 1.36 0.7 0 1.4 0.7 0 1.44 0.7 0 1.48 0.7 0 1.52 0.7 0 1.56 0.7 0 1.6 0.7 0 1.64 0.7 0 1.68 0.7 0 1.72 0.7 0 1.76 0.7 0 1.8 0.7 0 1.84 0.7 0 1.88 0.7 0 1.92 0.7 0 1.96 0.7 0 2 0.7 0 0 0.75 0 0.04 0.75 0 0.08 0.75 0 0.12 0.75 0 0.16 0.75 0 0.2 0.75 0 0.24 0.75 0 0.28 0.75 0 0.32 0.75 0 0.36 0.75 0 0.4 0.75 0 0.44 0.75 0 0.48 0.75 0 0.52 0.75 0 0.56 0.75 0 0.6 0.75 0 0.64 0.75 0 0.68 0.75 0 0.72 0.75 0 0.76 0.75 0 0.8 0.75 0 0.84 0.75 0 0.88 0.75 0 0.92 0.75 0 0.96 0.75 0 1 0.75 0 1.04 0.75 0 1.08 0.75 0 1.12 0.75 0 1.16 0.75 0 1.2 0.75 0 1.24 0.75 0 1.28 0.75 0 1.32 0.75 0 1.36 0.75 0 1.4 0.75 0 1.44 0.75 0 1.48 0.75 0 1.52 0.75 0 1.56 0.75 0 1.6 0.75 0 1.64 0.75 0 1.68 0.75 0 1.72 0.75 0 1.76 0.75 0 1.8 0.75 0 1.84 0.75 0 1.88 0.75 0 1.92 0.75 0 1.96 0.75 0 2 0.75 0 0 0.8 0 0.04 0.8 0 0.08 0.8 0 0.12 0.8 0 0.16 0.8 0 0.2 0.8 0 0.24 0.8 0 0.28 0.8 0 0.32 0.8 0 0.36 0.8 0 0.4 0.8 0 0.44 0.8 0 0.48 0.8 0 0.52 0.8 0 0.56 0.8 0 0.6 0.8 0 0.64 0.8 0 0.68 0.8 0 0.72 0.8 0 0.76 0.8 0 0.8 0.8 0 0.84 0.8 0 0.88 0.8 0 0.92 0.8 0 0.96 0.8 0 1 0.8 0 1.04 0.8 0 1.08 0.8 0 1.12 0.8 0 1.16 0.8 0 1.2 0.8 0 1.24 0.8 0 1.28 0.8 0 1.32 0.8 0 1.36 0.8 0 1.4 0.8 0 1.44 0.8 0 1.48 0.8 0 1.52 0.8 0 1.56 0.8 0 1.6 0.8 0 1.64 0.8 0 1.68 0.8 0 1.72 0.8 0 1.76 0.8 0 1.8 0.8 0 1.84 0.8 0 1.88 0.8 0 1.92 0.8 0 1.96 0.8 0 2 0.8 0 0 0.85 0 0.04 0.85 0 0.08 0.85 0 0.12 0.85 0 0.16 0.85 0 0.2 0.85 0 0.24 0.85 0 0.28 0.85 0 0.32 0.85 0 0.36 0.85 0 0.4 0.85 0 0.44 0.85 0 0.48 0.85 0 0.52 0.85 0 0.56 0.85 0 0
[...]
      <CellData>
        <DataArray type="Float64" Name="velocity_magnitude" format="ascii">
          0.146155956667495 0.147458807019322 0.147340489347597 0.148169131082886 0.148270072822833 0.148487283432777 0.148706987845084 0.148744429833101 0.148863018704294 0.148921486094381 0.148968813460939 0.149014539214276 0.149051047623325 0.149081197504263 0.149107888447902 0.14913142264075 0.149151947841667 0.149170058495303 0.149186261578643 0.14920082948379 0.149213963517197 0.14922586443672 0.149236718207595 0.149246665531357 0.149255817762309 0.149264273618554 0.149272106499575 0.149279401322898 0.149286188958753 0.149292574523901 0.149298471925001 0.149304199022905 0.149309165278852 0.149314707557997 0.149318143280988 0.149324863477944 0.149324563137776 0.14933623993358 0.149326535863266 0.149351057672081 0.1493224160652 0.149369402112775 0.149314985268665 0.149385545361689 0.14931192323493 0.149393711544734 0.149314502332792 0.149395177541216 0.149326089028003 0.149386506874891 0.415658917683487 0.416532772241019 0.415873331888095 0.416436666313516 0.416451192259244 0.416601131168608 0.416878095291109 0.416945862420911 0.417122504792975 0.417240934117986 0.417336409007134 0.417430647079265 0.417510124787814 0.4175775721439 0.417637926094062 0.417691654507191 0.417739105602193 0.417781421093312 0.417819526751209 0.417853970637519 0.417885196048339 0.417913634566305 0.417939660440575 0.417963578504669 0.417985635226478 0.418006043235498 0.418024984151895 0.418042627850711 0.418059072357654 0.418074511940411 0.418088866979294 0.418102592517325 0.418114978070739 0.418127677233736 0.418137553419382 0.418150790777889 0.418155955087892 0.418173581470324 0.418168538271621 0.418198066045306 0.418173796369015 0.418224167541057 0.418173745171382 0.418246515617745 0.418174576371142 0.418258193876133 0.418180978237048 0.418256675026685 0.418197629703461 0.418233424516741 0.655652943213399 0.656375330473385 0.655577183479694 0.655870998198407 0.655820759907421 0.655736957798868 0.655995816206421 0.655954924719721 0.656093732629417 0.656190650100854 0.656260760128075 0.656346898140828 0.656423799497171 0.656489612901316 0.656551661943792 0.656609277117441 0.656661249464416 0.656708553045333 0.656752101866393 0.656792178522977 0.656829021065611 0.656862993270509 0.656894446229212 0.656923645378905 0.656950807443036 0.656976139748919 0.656999812337328 0.657022007337408 0.657042820464191 0.657062455653718 0.657080829942298 0.657098423921424 0.6571145087811 0.657130750813123 0.657144099568631 0.65716041940466 0.657169173538821 0.657188857398372 0.657188486586375 0.657217727757089 0.65720091214922 0.657247050380569 0.657208078473031 0.657272482872758 0.657215044009026 0.657287625913821 0.657224439121291 0.657288282249226 0.657238688105158 0.657253592448426 0.865717977876965 0.866521100801822 0.865737631387199 0.865928148153914 0.865891199640905 0.865578416921718 0.865838930102318 0.865647416989805 0.86571119073193 0.865751598702044 0.865751840620775 0.865790861087028 0.865831566527019 0.865863631681415 0.86589861124363 0.865935260575649 0.865969639016855 0.866002089501459 0.866033493195357 0.866063604875636 0.866092100722694 0.866119047478346 0.866144607489176 0.8661688582403 0.866191836309231 0.866213607059837 0.866234244784521 0.866253846826416 0.866272431428645 0.866290156731576 0.866306872521399 0.866323044270968 0.866337894047313 0.866353058802486 0.866365543413226 0.866380939688909 0.866389341827044 0.866407832192888 0.866408144330853 0.866435069130491 0.866420813468965 0.86646250129951 0.866428520127643 0.866485675725129 0.866436461384117 0.866496648302401 0.866449379625144 0.866490516763741 0.866464715566682 0.866455983888992 1.04569750702903 1.04660390962591 1.04582860766005 1.04598118514306 1.04604992765062 1.0455717304175 1.04591041203465 1.04561979016087 1.04563931766547 1.0456517402991 1.04559350061378 1.04558877133286 1.04559388022615 1.0455876586445 1.04558788099778 1.04559502157417 1.04560252928927 1.04561023835939 1.0456195745623 1.04563009318903 1.04564095658184 1.04565196718794 1.04566317421062 1.04567450051184 1.04568579677787 1.04569697512249 1.04570798615955 1.04571883078653 1.04572943162947 1.04573986622815 1.04574990567755 1.04575996234856 1.04576920137535 1.04577919392506 1.04578699783119 1.04579791258654 1.04580262456855 1.04581689126137 1.04581496359862 1.04583708852628 1.04582317764208 1.04585810567077 1.04582903259967 1.04587533950389 1.04583865318908 1.04588048091281 1.04585615440977 1.04587097670103 1.04587034364001 1.04584568025944 1.19565821837301 1.19666429851275 1.19588742648205 1.19602799160669 1.1962216892286 1.19561090962685 1.19605540766357 1.19570312856606 1.19570070366219 1.19571321438434 1.19561858079011 1.19558602810356 1.19557040175008 1.19553736869215 1.19551068835066 1.19549421678482 1.19547905865483 1.19546444641756 1.19545275999984 1.1954437654375 1.19543628370198 1.19542997630506 1.19542493470879 1.19542107012721 1.19541814217341 1.19541597287371 1.19541445354157 1.19541353572181 1.19541308410823 1.19541312641127 1.19541337840866 1.19541421427734 1.19541476762625 1.19541654431409 1.19541667193074 1.19542017956718 1.19541827681587 1.19542559947352 1.19541850237608 1.19543338338835 1.19541675136801 1.19544247646475 1.19541532548568 1.19544697089695 1.19542153428364 1.195437003465 1.19543992547223 1.19541444287236 1.19544983466497 1.19540600888342 1.31561217809099 1.31671324875007 1.3159151536128 1.31603379308382 1.31633491076641 1.31560841547683 1.31615131077002 1.31575890156488 1.31574499016574 1.31577281239103 1.31565967119292 1.31561361002077 1.31559180455143 1.31554606998669 1.31550464049108 1.31547542068017 1.31544748442856 1.31541919383901 1.31539391241457 1.31537183665119 1.3153515576099 1.31533264527804 1.31531531963137 1.31529958341422 1.31528519199377 1.3152719483701 1.31525974575848 1.31524854713239 1.31523821644491 1.31522877451453 1.31521992608954 1.31521203495592 1.31520423981887 1.31519799908692 1.31519053901186 1.31518664159186 1.31517803550886 1.31517830750698 1.31516583695824 1.31517333782185 1.31515391932607 1.31517025666802 1.31514594800024 1.31516244101053 1.31515154901083 1.3151396843327 1.31517555295315 1.31510980728993 1.31518520582898 1.31512698024583 1.40557257091566 1.40674535986534 1.40592348477993 1.40602888372885 1.40641892312569 1.40560319852726 1.4062285161849 1.40581160575059 1.40579054097692 1.40583655885869 1.40571424017696 1.40566128608891 1.40563952508053 1.40558864589438 1.40553969984861 1.40550446086924 1.40547044135627 1.40543499352833 1.40540224947164 1.40537284890039 1.40534519062534 1.40531872927624 1.40529379017008 1.40527047450944 1.40524854927769 1.40522780928903 1.40520816240034 1.40518959772209 1.40517199613307 1.40515538897621 1.40513948966311 1.40512466784569 1.40511008817031 1.40509717876138 1.40508327268307 1.40507294725054 1.40505839235367 1.40505231525868 1.40503482790987 1.40503548893526 1.40501312162952 1.40502049354333 1.40499807284522 1.4049995665869 1.40500118690696 1.40496179630413 1.40502795141133 1.40492203966519 1.40503618326044 1.40496484695034 1.46554278280977 1.46676978968903 1.46593065872451 1.46602281181525 1.46647132711932 1.46559107651447 1.46626991527755 1.4658364131995 1.46580892659476 1.46586813881647 1.46574086826538 1.46568402642072 1.46566397943207 1.46561157614139 1.46555928679749 1.46552182820412 1.46548568034118 1.46544731296648 1.46541135001284 1.4653787788092 1.46534785391183 1.46531791491588 1.46528934884527 1.46526232895204 1.46523663083634 1.46521204087017 1.46518847637741 1.46516594749467 1.4651443517572 1.46512373161429 1.46510381163275 1.4650849682609 1.46506639141331 1.46504948872483 1.46503168092962 1.46501739512168 1.46499917307191 1.46498906704203 1.4649684955858 1.46496464972851 1.46494071678245 1.46494190811103 1.46492178624803 1.46491255825174 1.46492515794314 1.46486571832026 1.46495700596806 1.46482184532508 1.46496700284022 1.46488676500864 1.49552824244215 1.49678163166939 1.49593135329171 1.4960186811355 1.49649731565588 1.49558625222548 1.49629375120814 1.49585311745988 1.49582330993664 1.49589005251544 1.49576105083731 1.49570262008725 1.49568386815365 1.49563111093362 1.49557741773913 1.49553911421909 1.49550219993377 1.49546265398655 1.49542534622441 1.49539146060484 1.4953591785517 1.49532777037293 1.49529764952953 1.49526902506274 1.49524167407335 1.49521537382552 1.49519004255802 1.49516569852713 1.4951422457809 1.49511973054963 1.49509788206081 1.49507707923807 1.49505652587604 1.49503761787694 1.49501782399424 1.49500148998482 1.49498134754847 1.49496909901774 1.49494686491423 1.49494056253479 1.49491572899304 1.49491347056952 1.49489445739617 1.49487912549153 1.4948974376471 1.49482654648735 1.49493125830433 1.49477963455619 1.49494180649115 1.49485705271849 1.49552824244215 1.49678163166939 1.49593135329171 1.4960186811355 1.49649731565588 1.49558625222548 1.49629375120814 1.49585311745988 1.49582330993664 1.49589005251544 1.49576105083731 1.49570262008725 1.49568386815365 1.49563111093362 1.49557741773913 1.49553911421909 1.49550219993377 1.49546265398655 1.49542534622441 1.49539146060484 1.4953591785517 1.49532777037293 1.49529764952953 1.49526902506274 1.49524167407335 1.49521537382552 1.49519004255802 1.49516569852713 1.4951422457809 1.49511973054963 1.49509788206081 1.49507707923807 1.49505652587604 1.49503761787694 1.49501782399424 1.49500148998482 1.49498134754847 1.49496909901774 1.49494686491423 1.49494056253479 1.49491572899304 1.49491347056952 1.49489445739617 1.49487912549153 1.4948974376471 1.49482654648735 1.49493125830433 1.49477963455619 1.49494180649115 1.49485705271849 1.46554278280977 1.46676978968903 1.46593065872451 1.46602281181525 1.46647132711932 1.46559107651447 1.46626991527755 1.4658364131995 1.46580892659476 1.46586813881647 1.46574086826538 1.46568402642072 1.46566397943207 1.46561157614138 1.46555928679749 1.46552182820411 1.46548568034118 1.46544731296648 1.46541135001284 1.4653787788092 1.46534785391183 1.46531791491588 1.46528934884527 1.46526232895204 1.46523663083634 1.46521204087017 1.46518847637741 1.46516594749467 1.4651443517572 1.46512373161429 1.46510381163275 1.46508496826089 1.46506639141331 1.46504948872483 1.46503168092962 1.46501739512168 1.46499917307191 1.46498906704204 1.4649684955858 1.46496464972851 1.46494071678245 1.46494190811103 1.46492178624803 1.46491255825174 1.46492515794314 1.46486571832026 1.46495700596806 1.46482184532508 1.46496700284022 1.46488676500864 1.40557257091566 1.40674535986534 1.40592348477993 1.40602888372885 1.40641892312568 1.40560319852726 1.4062285161849 1.40581160575059 1.40579054097692 1.40583655885869 1.40571424017696 1.40566128608891 1.40563952508053 1.40558864589438 1.40553969984861 1.40550446086923 1.40547044135627 1.40543499352833 1.40540224947163 1.40537284890039 1.40534519062533 1.40531872927624 1.40529379017008 1.40527047450944 1.40524854927769 1.40522780928903 1.40520816240033 1.40518959772209 1.40517199613307 1.40515538897621 1.40513948966311 1.40512466784569 1.40511008817031 1.40509717876138 1.40508327268307 1.40507294725054 1.40505839235367 1.40505231525868 1.40503482790987 1.40503548893526 1.40501312162952 1.40502049354333 1.40499807284522 1.4049995665869 1.40500118690696 1.40496179630413 1.40502795141133 1.40492203966519 1.40503618326044 1.40496484695034 1.31561217809099 1.31671324875007 1.3159151536128 1.31603379308382 1.31633491076641 1.31560841547683 1.31615131077002 1.31575890156488 1.31574499016574 1.31577281239103 1.31565967119292 1.31561361002077 1.31559180455143 1.31554606998669 1.31550464049108 1.31547542068017 1.31544748442856 1.31541919383901 1.31539391241457 1.31537183665119 1.3153515576099 1.31533264527804 1.31531531963137 1.31529958341422 1.31528519199376 1.3152719483701 1.31525974575848 1.31524854713239 1.31523821644491 1.31522877451453 1.31521992608954 1.31521203495592 1.31520423981887 1.31519799908692 1.31519053901186 1.31518664159186 1.31517803550886 1.31517830750698 1.31516583695824 1.31517333782185 1.31515391932607 1.31517025666802 1.31514594800024 1.31516244101053 1.31515154901083 1.3151396843327 1.31517555295315 1.31510980728993 1.31518520582898 1.31512698024583 1.195658218373 1.19666429851275 1.19588742648205 1.19602799160669 1.1962216892286 1.19561090962685 1.19605540766357 1.19570312856606 1.19570070366219 1.19571321438434 1.19561858079011 1.19558602810356 1.19557040175008 1.19553736869215 1.19551068835066 1.19549421678481 1.19547905865483 1.19546444641756 1.19545275999984 1.1954437654375 1.19543628370197 1.19542997630506 1.19542493470879 1.19542107012721 1.19541814217341 1.19541597287371 1.19541445354156 1.19541353572181 1.19541308410823 1.19541312641127 1.19541337840866 1.19541421427734 1.19541476762625 1.19541654431409 1.19541667193074 1.19542017956718 1.19541827681587 1.19542559947352 1.19541850237608 1.19543338338835 1.19541675136801 1.19544247646475 1.19541532548568 1.19544697089695 1.19542153428364 1.195437003465 1.19543992547223 1.19541444287236 1.19544983466497 1.19540600888342 1.04569750702903 1.04660390962591 1.04582860766005 1.04598118514306 1.04604992765062 1.0455717304175 1.04591041203465 1.04561979016087 1.04563931766547 1.0456517402991 1.04559350061378 1.04558877133286 1.04559388022615 1.0455876586445 1.04558788099778 1.04559502157417 1.04560252928927 1.04561023835939 1.0456195745623 1.04563009318903 1.04564095658184 1.04565196718793 1.04566317421062 1.04567450051184 1.04568579677787 1.04569697512249 1.04570798615955 1.04571883078653 1.04572943162947 1.04573986622815 1.04574990567755 1.04575996234856 1.04576920137535 1.04577919392506 1.04578699783119 1.04579791258655 1.04580262456855 1.04581689126137 1.04581496359863 1.04583708852628 1.04582317764208 1.04585810567077 1.04582903259967 1.04587533950389 1.04583865318908 1.04588048091281 1.04585615440977 1.04587097670103 1.04587034364001 1.04584568025945 0.865717977876964 0.866521100801822 0.865737631387198 0.865928148153913 0.865891199640905 0.865578416921717 0.865838930102317 0.865647416989805 0.86571119073193 0.865751598702044 0.865751840620775 0.865790861087028 0.865831566527019 0.865863631681415 0.86589861124363 0.865935260575649 0.865969639016855 0.866002089501459 0.866033493195357 0.866063604875637 0.866092100722694 0.866119047478346 0.866144607489176 0.8661688582403 0.866191836309232 0.866213607059837 0.866234244784521 0.866253846826416 0.866272431428645 0.866290156731576 0.866306872521398 0.866323044270968 0.866337894047314 0.866353058802486 0.866365543413226 0.866380939688909 0.866389341827043 0.866407832192888 0.866408144330853 0.866435069130491 0.866420813468965 0.866462501299511 0.866428520127643 0.86648567572513 0.866436461384118 0.866496648302402 0.866449379625145 0.866490516763742 0.866464715566683 0.866455983888992 0.655652943213399 0.656375330473385 0.655577183479694 0.655870998198407 0.655820759907421 0.655736957798868 0.655995816206421 0.655954924719721 0.656093732629417 0.656190650100854 0.656260760128075 0.656346898140828 0.656423799497171 0.656489612901316 0.656551661943792 0.656609277117441 0.656661249464416 0.656708553045333 0.656752101866393 0.656792178522977 0.656829021065611 0.656862993270509 0.656894446229212 0.656923645378906 0.656950807443037 0.65697613974892 0.656999812337328 0.657022007337408 0.657042820464191 0.657062455653718 0.657080829942299 0.657098423921424 0.6571145087811 0.657130750813123 0.657144099568631 0.65716041940466 0.657169173538821 0.657188857398373 0.657188486586375 0.657217727757089 0.65720091214922 0.65724705038057 0.657208078473032 0.657272482872758 0.657215044009026 0.657287625913822 0.657224439121291 0.657288282249227 0.657238688105158 0.657253592448427 0.415658917683487 0.416532772241019 0.415873331888094 0.416436666313516 0.416451192259244 0.416601131168609 0.416878095291109 0.416945862420911 0.417122504792975 0.417240934117986 0.417336409007133 0.417430647079265 0.417510124787814 0.417577572143899 0.417637926094061 0.41769165450719 0.417739105602192 0.417781421093312 0.417819526751209 0.417853970637519 0.417885196048339 0.417913634566305 0.417939660440575 0.417963578504668 0.417985635226478 0.418006043235498 0.418024984151895 0.418042627850711 0.418059072357654 0.418074511940411 0.418088866979294 0.418102592517325 0.418114978070739 0.418127677233736 0.418137553419382 0.418150790777889 0.418155955087892 0.418173581470324 0.418168538271621 0.418198066045306 0.418173796369015 0.418224167541057 0.418173745171382 0.418246515617745 0.418174576371142 0.418258193876133 0.418180978237048 0.418256675026684 0.418197629703461 0.418233424516741 0.146155956667495 0.147458807019322 0.147340489347597 0.148169131082886 0.148270072822833 0.148487283432777 0.148706987845083 0.148744429833101 0.148863018704293 0.14892148609438 0.148968813460938 0.149014539214276 0.149051047623324 0.149081197504263 0.149107888447902 0.149131422640749 0.149151947841667 0.149170058495303 0.149186261578643 0.149200829483789 0.149213963517196 0.149225864436719 0.149236718207595 0.149246665531356 0.149255817762309 0.149264273618554 0.149272106499574 0.149279401322897 0.149286188958752 0.1492925745239 0.149298471925001 0.149304199022905 0.149309165278851 0.149314707557997 0.149318143280988 0.149324863477944 0.149324563137776 0.14933623993358 0.149326535863266 0.149351057672081 0.1493224160652 0.149369402112775 0.149314985268665 0.149385545361688 0.14931192323493 0.149393711544734 0.149314502332792 0.149395177541215 0.149326089028002 0.149386506874891
        </DataArray>
        <DataArray type="Float64" Name="pressure" format="ascii">