<?xml version="1.0"?>
<VTKFile type="UnstructuredGrid" version="0.1" byte_order="LittleEndian">
  <UnstructuredGrid>
    <Piece NumberOfPoints="1089" NumberOfCells="1024">
      <Points>
        <DataArray type="Float64" NumberOfComponents="3" format="ascii">
          0 0 0 0.03125 0 0 0.0625 0 0 0.09375 0 0 0.125 0 0 0.15625 0 0 0.1875 0 0 0.21875 0 0 0.25 0 0 0.28125 0 0 0.3125 0 0 0.34375 0 0 0.375 0 0 0.40625 0 0 0.4375 0 0 0.46875 0 0 0.5 0 0 0.53125 0 0 0.5625 0 0 0.59375 0 0 0.625 0 0 0.65625 0 0 0.6875 0 0 0.71875 0 0 0.75 0 0 0.78125 0 0 0.8125 0 0 0.84375 0 0 0.875 0 0 0.90625 0 0 0.9375 0 0 0.96875 0 0 1 0 0 0 0.03125 0 0.03125 0.03125 0 0.0625 0.03125 0 0.09375 0.03125 0 0.125 0.03125 0 0.15625 0.03125 0 0.1875 0.03125 0 0.21875 0.03125 0 0.25 0.03125 0 0.28125 0.03125 0 0.3125 0.03125 0 0.34375 0.03125 0 0.375 0.03125 0 0.40625 0.03125 0 0.4375 0.03125 0 0.46875 0.03125 0 0.5 0.03125 0 0.53125 0.03125 0 0.5625 0.03125 0 0.59375 0.03125 0 0.625 0.03125 0 0.65625 0.03125 0 0.6875 0.03125 0 0.71875 0.03125 0 0.75 0.03125 0 0.78125 0.03125 0 0.8125 0.03125 0 0.84375 0.03125 0 0.875 0.03125 0 0.90625 0.03125 0 0.9375 0.03125 0 0.96875 0.03125 0 1 0.03125 0 0 0.0625 0 0.03125 0.0625 0 0.0625 0.0625 0 0.09375 0.0625 0 0.125 0.0625 0 0.15625 0.0625 0 0.1875 0.0625 0 0.21875 0.0625 0 0.25 0.0625 0 0.28125 0.0625 0 0.3125 0.0625 0 0.34375 0.0625 0 0.375 0.0625 0 0.40625 0.0625 0 0.4375 0.0625 0 0.46875 0.0625 0 0.5 0.0625 0 0.53125 0.0625 0 0.5625 0.0625 0 0.59375 0.0625 0 0.625 0.0625 0 0.65625 0.0625 0 0.6875 0.0625 0 0.71875 0.0625 0 0.75 0.0625 0 0.78125 0.0625 0 0.8125 0.0625 0 0.84375 0.0625 0 0.875 0.0625 0 0.90625 0.0625 0 0.9375 0.0625 0 0.96875 0.0625 0 1 0.0625 0 0 0.09375 0 0.03125 0.09375 0 0.0625 0.09375 0 0.09375 0.09375 0 0.125 0.09375 0 0.15625 0.09375 0 0.1875 0.09375 0 0.21875 0.09375 0 0.25 0.09375 0 0.28125 0.09375 0 0.3125 0.09375 0 0.34375 0.09375 0 0.375 0.09375 0 0.40625 0.09375 0 0.4375 0.09375 0 0.46875 0.09375 0 0.5 0.09375 0 0.53125 0.09375 0 0.5625 0.09375 0 0.59375 0.09375 0 0.625 0.09375 0 0.65625 0.09375 0 0.6875 0.09375 0 0.71875 0.09375 0 0.75 0.09375 0 0.78125 0.09375 0 0.8125 0.09375 0 0.84375 0.09375 0 0.875 0.09375 0 0.90625 0.09375 0 0.9375 0.09375 0 0.96875 0.09375 0 1 0.09375 0 0 0.125 0 0.03125 0.125 0 0.0625 0.125 0 0.09375 0.125 0 0.125 0.125 0 0.15625 0.125 0 0.1875 0.125 0 0.21875 0.125 0 0.25 0.125 0 0.28125 0.125 0 0.3125 0.125 0 0.34375 0.125 0 0.375 0.125 0 0.40625 0.125 0 0.4375 0.125 0 0.46875 0.125 0 0.5 0.125 0 0.53125 0.125 0 0.5625 0.125 0 0.59375 0.125 0 0.625 0.125 0 0.65625 0.125 0 0.6875 0.125 0 0.71875 0.125 0 0.75 0.125 0 0.78125 0.125 0 0.8125 0.125 0 0.84375 0.125 0 0.875 0.125 0 0.90625 0.125 0 0.9375 0.125 0 0.96875 0.125 0 1 0.125 0 0 0.15625 0 0.03125 0.15625 0 0.0625 0.15625 0 0.09375 0.15625 0 0.125 0.15625 0 0.15625 0.15625 0 0.1875 0.15625 0 0.21875 0.15625 0 0.25 0.15625 0 0.28125 0.15625 0 0.3125 0.15625 0 0.34375 0.15625 0 0.375 0.15625 0 0.40625 0.15625 0 0.4375 0.15625 0 0.46875 0.15625 0 0.5 0.15625 0 0.53125 0.15625 0 0.5625 0.15625 0 0.59375 0.15625 0 0.625 0.15625 0 0.65625 0.15625 0 0.6875 0.15625 0 0.71875 0.15625 0 0.75 0.15625 0 0.78125 0.15625 0 0.8125 0.15625 0 0.84375 0.15625 0 0.875 0.15625 0 0.90625 0.15625 0 0.9375 0.15625 0 0.96875 0.15625 0 1 0.15625 0 0 0.1875 0 0.03125 0.1875 0 0.0625 0.1875 0 0.09375 0.1875 0 0.125 0.1875 0 0.15625 0.1875 0 0.1875 0.1875 0 0.21875 0.1875 0 0.25 0.1875 0 0.28125 0.1875 0 0.3125 0.1875 0 0.34375 0.1875 0 0.375 0.1875 0 0.40625 0.1875 0 0.4375 0.1875 0 0.46875 0.1875 0 0.5 0.1875 0 0.53125 0.1875 0 0.5625 0.1875 0 0.59375 0.1875 0 0.625 0.1875 0 0.65625 0.1875 0 0.6875 0.1875 0 0.71875 0.1875 0 0.75 0.1875 0 0.78125 0.1875 0 0.8125 0.1875 0 0.84375 0.1875 0 0.875 0.1875 0 0.90625 0.1875 0 0.9375 0.1875 0 0.96875 0.1875 0 1 0.1875 0 0 0.21875 0 0.03125 0.21875 0 0.0625 0.21875 0 0.09375 0.21875 0 0.125 0.21875 0 0.15625 0.21875 0 0.1875 0.21875 0 0.21875 0.21875 0 0.25 0.21875 0 0.28125 0.21875 0 0.3125 0.21875 0 0.34375 0.21875 0 0.375 0.21875 0 0.40625 0.21875 0 0.4375 0.21875 0 0.46875 0.21875 0 0.5 0.21875 0 0.53125 0.21875 0 0.5625 0.21875 0 0.59375 0.21875 0 0.625 0.21875 0 0.65625 0.21875 0 0.6875 0.21875 0 0.71875 0.21875 0 0.75 0.21875 0 0.78125 0.21875 0 0.8125 0.21875 0 0.84375 0.21875 0 0.875 0.21875 0 0.90625 0.21875 0 0.9375 0.21875 0 0.96875 0.21875 0 1 0.21875 0 0 0.25 0 0.03125 0.25 0 0.0625 0.25 0 0.09375 0.25 0 0.125 0.25 0 0.15625 0.25 0 0.1875 0.25 0 0.21875 0.25 0 0.25 0.25 0 0.28125 0.25 0 0.3125 0.25 0 0.34375 0.25 0 0.375 0.25 0 0.40625 0.25 0 0.4375 0.25 0 0.46875 0.25 0 0.5 0.25 0 0.53125 0.25 0 0.5625 0.25 0 0.59375 0.25 0 0.625 0.25 0 0.65625 0.25 0 0.6875 0.25 0 0.71875 0.25 0 0.75 0.25 0 0.78125 0.25 0 0.8125 0.25 0 0.84375 0.25 0 0.875 0.25 0 0.90625 0.25 0 0.9375 0.25 0 0.96875 0.25 0 1 0.25 0 0 0.28125 0 0.03125 0.28125 0 0.0625 0.28125 0 0.09375 0.28125 0 0.125 0.28125 0 0.15625 0.28125 0 0.1875 0.28125 0 0.21875 0.28125 0 0.25 0.28125 0 0.28125 0.28125 0 0.3125 0.28125 0 0.34375 0.28125 0 0.375 0.28125 0 0.40625 0.28125 0 0.4375 0.28125 0 0.46875 0.28125 0 0.5 0.28125 0 0.53125 0.28125 0 0.5625 0.28125 0 0.59375 0.28125 0 0.625 0.28125 0 0.65625 0.28125 0 0.6875 0.28125 0 0.71875 0.28125 0 0.75 0.28125 0 0.78125 0.28125 0 0.8125 0.28125 0 0.84375 0.28125 0 0.875 0.28125 0 0.90625 0.28125 0 0.9375 0.28125 0 0.96875 0.28125 0 1 0.28125 0 0 0.3125 0 0.03125 0.3125 0 0.0625 0.3125 0 0.09375 0.3125 0 0.125 0.3125 0 0.15625 0.3125 0 0.1875 0.3125 0 0.21875 0.3125 0 0.25 0.3125 0 0.28125 0.3125 0 0.3125 0.3125 0 0.34375 0.3125 0 0.375 0.3125 0 0.40625 0.3125 0 0.4375 0.3125 0 0.46875 0.3125 0 0.5 0.3125 0 0.53125 0.3125 0 0.5625 0.3125 0 0.59375 0.3125 0 0.625 0.3125 0 0.65625 0.3125 0 0.6875 0.3125 0 0.71875 0.3125 0 0.75 0.3125 0 0.78125 0.3125 0 0.8125 0.3125 0 0.84375 0.3125 0 0.875 0.3125 0 0.90625 0.3125 0 0.9375 0.3125 0 0.96875 0.3125 0 1 0.3125 0 0 0.34375 0 0.03125 0.34375 0 0.0625 0.34375 0 0.09375 0.34375 0 0.125 0.34375 0 0.15625 0.34375 0 0.1875 0.34375 0 0.21875 0.34375 0 0.25 0.34375 0 0.28125 0.34375 0 0.3125 0.34375 0 0.34375 0.34375 0 0.375 0.34375 0 0.40625 0.34375 0 0.4375 0.34375 0 0.46875 0.34375 0 0.5 0.34375 0 0.53125 0.34375 0 0.5625 0.34375 0 0.59375 0.34375 0 0.625 0.34375 0 0.65625 0.34375 0 0.6875 0.34375 0 0.71875 0.34375 0 0.75 0.34375 0 0.78125 0.34375 0 0.8125 0.34375 0 0.84375 0.34375 0 0.875 0.34375 0 0.90625 0.34375 0 0.9375 0.34375 0 0.96875 0.34375 0 1 0.34375 0 0 0.375 0 0.03125 0.375 0 0.0625 0.375 0 0.09375 0.375 0 0.125 0.375 0 0.15625 0.375 0 0.1875 0.375 0 0.21875 0.375 0 0.25 0.375 0 0.28125 0.375 0 0.3125 0.375 0 0.34375 0.375 0 0.375 0.375 0 0.40625 0.375 0 0.4375 0.375 0 0.46875 0.375 0 0.5 0.375 0 0.53125 0.375 0 0.5625 0.375 0 0.59375 0.375 0 0.625 0.375 0 0.65625 0.375 0 0.6875 0.375 0 0.71875 0.375 0 0.75 0.375 0 0.78125 0.375 0 0.8125 0.375 0 0.84375 0.375 0 0.875 0.375 0 0.90625 0.375 0 0.9375 0.375 0 0.96875 0.375 0 1 0.375 0 0 0.40625 0 0.03125 0.40625 0 0.0625 0.40625 0 0.09375 0.40625 0 0.125 0.40625 0 0.15625 0.40625 0 0.1875 0.40625 0 0.21875 0.40625 0 0.25 0.40625 0 0.28125 0.40625 0 0.3125 0.40625 0 0.34375 0.40625 0 0.375 0.40625 0 0.40625 0.40625 0 0.4375 0.40625 0 0.46875 0.40625 0 0.5 0.40625 0 0.53125 0.40625 0 0.5625 0.40625 0 0.59375 0.40625 0 0.625 0.40625 0 0.65625 0.40625 0 0.6875 0.40625 0 0.71875 0.40625 0 0.75 0.40625 0 0.78125 0.40625 0 0.8125 0.40625 0 0.84375 0.40625 0 0.875 0.40625 0 0.90625 0.40625 0 0.9375 0.40625 0 0.96875 0.40625 0 1 0.40625 0 0 0.4375 0 0.03125 0.4375 0 0.0625 0.4375 0 0.09375 0.4375 0 0.125 0.4375 0 0.15625 0.4375 0 0.1875 0.4375 0 0.21875 0.4375 0 0.25 0.4375 0 0.28125 0.4375 0 0.3125 0.4375 0 0.34375 0.4375 0 0.375 0.4375 0 0.40625 0.4375 0 0.4375 0.4375 0 0.46875 0.4375 0 0.5 0.4375 0 0.53125 0.4375 0 0.5625 0.4375 0 0.59375 0.4375 0 0.625 0.4375 0 0.65625 0.4375 0 0.6875 0.4375 0 0.71875 0.4375 0 0.75 0.4375 0 0.78125 0.4375 0 0.8125 0.4375 0 0.84375 0.4375 0 0.875 0.4375 0 0.90625 0.4375 0 0.9375 0.4375 0 0.96875 0.4375 0 1 0.4375 0 0 0.46875 0 0.03125 0.46875 0 0.0625 0.46875 0 0.09375 0.46875 0 0.125 0.46875 0 0.15625 0.46875 0 0.1875 0.46875 0 0.21875 0.46875 0 0.25 0.46875 0 0.28125 0.46875 0 0.3125 0.46875 0 0.34375 0.46875 0 0.375 0.46875 0 0.40625 0.46875 0 0.4375 0.46875 0 0.46875 0.46875 0 0.5 0.46875 0 0.53125 0.46875 0 0.5625 0.46875 0 0.59375 0.46875 0 0.625 0.46875 0 0.65625 0.46875 0 0.6875 0.46875 0 0.71875 0.46875 0 0.75 0.46875 0 0.78125 0.46875 0 0.8125 0.46875 0 0.84375 0.46875 0 0.875 0.46875 0 0.90625 0.46875 0 0.9375 0.46875 0 0.96875 0.46875 0 1 0.46875 0 0 0.5 0 0.03125 0.5 0 0.0625 0.5 0 0.09375 0.5 0 0.125 0.5 0 0.15625 0.5 0 0.1875 0.5 0 0.21875 0.5 0 0.25 0.5 0 0.28125 0.5 0 0.3125 0.5 0 0.34375 0.5 0 0.375 0.5 0 0.40625 0.5 0 0.4375 0.5 0 0.46875 0.5 0 0.5 0.5 0 0.53125 0.5 0 0.5625 0.5 0 0.59375 0.5 0 0.625 0.5 0 0.65625 0.5 0 0.6875 0.5 0 0.71875 0.5 0 0.75 0.5 0 0.78125 0.5 0 0.8125 0.5 0 0.84375 0.5 0 0.875 0.5 0 0.90625 0.5 0 0.9375 0.5 0 0.96875 0.5 0 1 0.5 0 0 0.53125 0 0.03125 0.53125 0 0.0625 0.53125 0 0.09375 0.53125 0 0.125 0.53125 0 0.15625 0.53125 0 0.1875 0.53125 0 0.21875 0.53125 0 0.25 0.53125 0 0.28125 0.53125 0 0.3125 0.53125 0 0.34375 0.53125 0 0.375 0.53125 0 0.40625 0.53125 0 0.4375 0.53125 0 0.46875 0.53125 0 0.5 0.53125 0 0.53125 0.53125 0 0.5625 0.53125 0 0.59375 0.53125 0 0.625 0.53125 0 0.65625 0.53125 0 0.6875 0.53125 0 0.71875 0.53125 0 0.75 0.53125 0 0.78125 0.53125 0 0.8125 0.53125 0 0.84375 0.53125 0 0.875 0.53125 0 0.90625 0.53125 0 0.9375 0.53125 0 0.96875 0.53125 0 1 0.53125 0 0 0.5625 0 0.03125 0.5625 0 0.0625 0.5625 0 0.09375 0.5625 0 0.125 0.5625 0 0.15625 0.5625 0 0.1875 0.5625 0 0.21875 0.5625 0 0.25 0.5625 0 0.28125 0.5625 0 0.3125 0.5625 0 0.34375 0.5625 0 0.375 0.5625 0 0.40625 0.5625 0 0.4375 0.5625 0 0.46875 0.5625 0 0.5 0.5625 0 0.53125 0.5625 0 0.5625 0.5625 0 0.59375 0.5625 0 0.625 0.5625 0 0.65625 0.5625 0 0.6875 0.5625 0 0.71875 0.5625 0 0.75 0.5625 0 0.78125 0.5625 0 0
[...]
      <CellData>
        <DataArray type="Float64" Name="velocity_magnitude" format="ascii">
          0.000207600856875308 0.000242184326281291 8.83133179112735e-05 0.00042614989668734 0.00120468268368378 0.00217229975023667 0.00330354889090872 0.00448411204771224 0.00572364518329837 0.00692363472158879 0.00809688448588239 0.00916580158691767 0.0101299324252843 0.0109288341253671 0.0115469293601916 0.0119395497161254 0.0120828466108238 0.0119526264899713 0.0115306985873987 0.0108274827621955 0.0098412205802989 0.00863019122951227 0.00722045117986811 0.00572113497037991 0.00418524479835337 0.00275095332208782 0.00148432688118127 0.000498819333837037 0.000144578476709487 0.000445044245998671 0.000365317414442447 0.000180236349921659 0.000262635242798499 0.000252591250622772 0.00125658189202323 0.00291149201886005 0.00508933618378982 0.00768610540335889 0.0106240075862757 0.0137067711542524 0.0168915970532724 0.0199944448594518 0.0229810299254658 0.0256995417078216 0.0281050918140596 0.0300761859012076 0.0315566449465459 0.0324573304748699 0.032724878892266 0.0323152742183227 0.0311997628930425 0.0294033301365928 0.0269488009372449 0.0239552727821571 0.0205136005770046 0.0168381157178075 0.0130796154952392 0.00950175479771845 0.00627693504153678 0.00360958449515494 0.00163551797470524 0.000340774404169952 0.000249062823971274 0.000364303775735986 0.000110968931152898 0.00130701639023208 0.00347670478072214 0.00645669941687247 0.0100419381246952 0.0141297764143302 0.0186181724722435 0.0232818021387099 0.0280413381450122 0.0326639345006729 0.0370745480381855 0.0410726962182275 0.0445763553791569 0.0474245049338284 0.0495325154402889 0.0507859545319466 0.0511163225560158 0.0504719734399873 0.0488242684909351 0.0462118129115419 0.0426771594045209 0.038375351072161 0.0334355027276485 0.0281246989761417 0.0226461825227316 0.0173188806110412 0.0123741086107227 0.00805124656192654 0.00454956270578624 0.00187638439548514 0.000255684739575373 0.000469667507255693 0.000441783355077992 0.00310656609601901 0.00665967343301921 0.0110533288837916 0.0160226151770552 0.0214597886061666 0.027263844890861 0.033205857274695 0.0391969464245875 0.0449791943431235 0.0504559323620353 0.0553957302635719 0.0596948482048316 0.0631682201352561 0.065716992394982 0.0672152643837811 0.0675903986715838 0.0667920646515441 0.0647960850313625 0.0616523566132792 0.0574107523020929 0.0522405408040286 0.0462759200573052 0.0397950225970708 0.03300552623875 0.0262342791412373 0.0197332943839962 0.0137636056196827 0.00860167884736989 0.00433849908598623 0.00137172951181949 0.000284597927333177 0.00133930360633734 0.00565269788535838 0.0107717761728292 0.016634359144022 0.0229497791528443 0.0296173326573283 0.0365517944212543 0.0435366849819756 0.0504941731767811 0.0571591448189805 0.0634320407206652 0.0690652631911933 0.0739483770249681 0.0778840526094528 0.0807704772928995 0.0824787360427423 0.0829379198617061 0.082103042314009 0.079951601632753 0.0765378885225145 0.071903395898963 0.0662112198862119 0.0595709058289569 0.0522405421320582 0.0443973934204401 0.0363488807403537 0.0283507787483635 0.0206854211190286 0.0137255826310745 0.00766280776755822 0.00308950874285122 0.000172071081734707 0.00256574508019056 0.00893625084163582 0.0158197265886678 0.0231907943077222 0.0307922109095759 0.0385511916243192 0.0464228555048058 0.0542176247789131 0.0618881739974161 0.069177761693317 0.076001029445284 0.0821078660148694 0.0873947966207157 0.0916627942646109 0.0948164868619795 0.0967306579805198 0.0973396673672137 0.0966058444986238 0.0945034198841209 0.0910831265744974 0.0863619016863045 0.0804775467380436 0.0734875867099439 0.0656037085429157 0.0569426231717357 0.0477716325215541 0.0383339458477088 0.0289326050713499 0.0200411937944076 0.0119613198702832 0.00548150382986801 0.000870344375571098 0.00412641154518502 0.0129632772317631 0.0218171401446164 0.030745493402706 0.0395770954749425 0.0482986525917811 0.0569308266203825 0.0653288318245473 0.0734926360103741 0.0811885161153788 0.0883596499465255 0.0947655237646401 0.100321129103172 0.104834300319766 0.108223673649938 0.110371778485647 0.111219947976816 0.110738625026347 0.108891847725387 0.105718508152065 0.10119646819287 0.0954211001729402 0.0883743070077962 0.080198979793084 0.0709249119149592 0.0607597249148588 0.0499167627572578 0.0387116558975331 0.0277198230352698 0.0173535027457579 0.00860783204328375 0.00184605567719014 0.0059527001366343 0.0176322022132918 0.0286632835643809 0.0392060976855082 0.0492201453566372 0.058780775627817 0.0680026463450283 0.0768043713146312 0.0852507067594248 0.0931452988740734 0.100473328201612 0.107015537092274 0.11271586255473 0.117397321702193 0.120999263904021 0.123415803563701 0.12459704910618 0.124518914903389 0.123132608897129 0.12045844648277 0.116422640164007 0.11106392258967 0.104266798323641 0.096084658207335 0.086431791602786 0.0754329843646039 0.0632440195998305 0.0501764326592027 0.0368969074722028 0.0239290420641725 0.012494710614832 0.00307227976782304 0.00805575166654201 0.0229316588458709 0.0363371173635293 0.0485577747710376 0.0597196175138271 0.0700127431816655 0.0796710631201277 0.0886950957530117 0.0972305013178946 0.105132306354111 0.112439945037336 0.118966642599974 0.124695201378621 0.129471645933368 0.133263811597341 0.135979575698351 0.13758429742941 0.138048829427148 0.137319643377611 0.135390168025442 0.132127435167316 0.127501061685882 0.121278799397222 0.113404181544211 0.103644256836523 0.0920120773850141 0.0785671937068496 0.0635895506449457 0.0478172035083584 0.0318851171132681 0.0172733087320147 0.00460692546399855 0.010365108586527 0.0287391710973322 0.0446978116747763 0.0586608020114021 0.070947484006334 0.0818819238240894 0.0918394382073447 0.100917719427779 0.109358387542045 0.117080480834407 0.124189323761342 0.130541812523021 0.136169182817875 0.140949943678443 0.144887463826414 0.147910043784943 0.150001760543958 0.151130559209093 0.151238509002145 0.150292511887617 0.14809397178857 0.144536156222103 0.139251636723587 0.13205476289575 0.122528569922026 0.110539564931452 0.0959971957372792 0.0791101876849371 0.0606506518377582 0.0413626684425886 0.0230223540297468 0.00645842487873182 0.0128798531347395 0.035017191706955 0.0536844820662548 0.0694489020233951 0.0828449208376723 0.0943438698769326 0.104480230113031 0.113459759899249 0.12163278734549 0.128992338775764 0.135720087747348 0.14172692211358 0.147102310659957 0.151767670640095 0.155771114254661 0.159070749928954 0.161675920698777 0.163560062923018 0.164661232597929 0.164924343378169 0.164083575444457 0.161951685920867 0.158010054180284 0.151925319643654 0.143055663377052 0.131081193438188 0.115691993624192 0.0969721528204267 0.0756676734659225 0.05262102119628 0.0299388259196581 0.00871834567858693 0.0155330021572358 0.0416410436378871 0.0631462353213992 0.0807651296579167 0.0952625516348957 0.107263160218765 0.117474894527903 0.126216420994925 0.133957561878643 0.140771220023909 0.146924734817154 0.152391774061431 0.157330065424256 0.16171603532804 0.165654112675007 0.169146266026187 0.17223843126867 0.174920537778078 0.177133008013652 0.178807998651128 0.179614847586277 0.179285816461894 0.177137317078574 0.172672053338435 0.164979251090631 0.153510191679352 0.137649755393947 0.11728949045299 0.0930565359826254 0.0658648712132909 0.0381730758554369 0.0114340196921296 0.0183087768477958 0.0485483583070937 0.0729884249622571 0.0924986346123399 0.108086483692874 0.120530246430661 0.130724136426077 0.139098239073631 0.146251189979895 0.152335841872248 0.157712587398455 0.162423008729902 0.166702491459643 0.170594833776102 0.174275105748261 0.17780839598125 0.181293636109931 0.184757493799669 0.188150398556892 0.191405575425404 0.194137117116662 0.195999632025651 0.196134803992917 0.193868508648337 0.187975854930956 0.177637892257176 0.161833512143511 0.140180497592342 0.113053747036693 0.0813853939001214 0.0479760333048735 0.0147265808680197 0.0211425890336304 0.0556172214081864 0.0830625516749797 0.104492198885596 0.121163873252703 0.13400142318889 0.14409802668986 0.151985898489129 0.158401971566408 0.163572290346016 0.167956556112422 0.171664445959138 0.17501760858758 0.178138501281059 0.181290505400228 0.184625796390329 0.188321465064563 0.192470189186569 0.197044383204691 0.201999682301652 0.206908484112124 0.211353467272187 0.214295002313717 0.214873810154226 0.211506669243204 0.203068627022559 0.188019058908955 0.165611228333479 0.135785954463061 0.0994039006295184 0.0595478156267341 0.0186739915794446 0.024015538712496 0.0627800755758001 0.0932606473099451 0.116606814147825 0.134335598747496 0.147503108535976 0.157419594697498 0.164702740021449 0.17024005330195 0.174315249626822 0.177491824299334 0.179939131022989 0.182069815466441 0.184091112828757 0.186372383856401 0.189180329112065 0.19280297931577 0.197447842360994 0.203122503002598 0.209827094792823 0.217121528020786 0.224520870795037 0.230803963748913 0.234923806247899 0.234898602803078 0.229273087066697 0.215865461085825 0.193471587667092 0.161363064124892 0.120192816486175 0.0731835936855842 0.0234379411848351 0.0268622213786059 0.0699235179398853 0.103450992106761 0.128704030273862 0.147467505692282 0.1609050735767 0.170568628364477 0.177134427971218 0.181658786494193 0.1844587284387 0.186207522292363 0.187116830752876 0.187691939689614 0.188222549109215 0.189202170517278 0.191036900045932 0.194178076488633 0.1989885206163 0.205577315281834 0.214000969039757 0.223835083027389 0.234532036065343 0.244690365430388 0.253078784717422 0.257282262856367 0.255508768458924 0.244810564869156 0.223441919802597 0.189715985749959 0.143891018080631 0.0890760811486896 0.0291016246157006 0.0296917176641447 0.0770214971151148 0.113555520334455 0.140645225687089 0.160367933378587 0.173964857936737 0.18327307806157 0.188990658549002 0.192371999733087 0.193731657771105 0.193859818978662 0.192979768369677 0.191683150351296 0.190324082197783 0.189528399907931 0.189855858607892 0.191986552241887 0.19647855747958 0.203667892322863 0.213663740408456 0.226100958807373 0.240370609245856 0.254896846999695 0.268274581622295 0.277631202205698 0.280855980948774 0.274115648252414 0.255062696053724 0.220710796381888 0.170684810655998 0.107563730271883 0.0359034741710204 0.0324277042713611 0.0839755903607178 0.123480997100072 0.152340525890214 0.172956734337405 0.186602526868312 0.195459628540097 0.200197152604896 0.202311481553409 0.202069407193544 0.200393692796783 0.197479187103626 0.193993363919634 0.190321173604219 0.187212149889129 0.185386235250261 0.185810467091976 0.189325004836423 0.196629703966665 0.20790710879151 0.22291578509165 0.240966020724273 0.260301864305368 0.279355703581548 0.294782487773723 0.304204947559495 0.302795527794418 0.287584959216946 0.253905143146515 0.200470591742583 0.128720022862803 0.0438726787727852 0.0351736309622349 0.0908920587685817 0.133257615387691 0.163692059817453 0.185017729091388 0.198479636514694 0.206711997982886 0.210283881508529 0.211001084660503 0.209021508208982 0.205422999531656 0.200317400643629 0.194431690557636 0.18812286511061 0.182228091466919 0.177593061281666 0.175511641128085 0.177196671140312 0.183905628104581 0.1959941401844 0.21338822209068 0.235295526223707 0.259765033691555 0.28507843323978 0.307426156623157 0.324254300197954 0.329658440155368 0.320095642166008 0.288796813359254 0.233274533180156 0.152949149266561 0.0534130378412228 0.0378087856133524 0.0976828640107036 0.142851271954712 0.174699237079504 0.196574210133839 0.209624679697985 0.217062077147063 0.219273294134073 0.218460452610504 0.214604921423292 0.208981162953671 0.201560696426104 0.193117678811299 0.183906158205072 0.174786517647882 0.16664884059505 0.161093909926299 0.159825473014296 0.164885699965482 0.177142609293081 0.196641657522588 0.222422264175679 0.252258311215772 0.284286683149633 0.314258461282826 0.339597700371407 0.353272986066156 0.351288887099696 0.324355695700769 0.268509133061801 0.180002303542926 0.0643785433986504 0.0406770095067789 0.10475558774431 0.15253602183261 0.185339800249395 0.207364644500781 0.219514447413558 0.225832548392452 0.226376121206156 0.223876054306055 0.218041196273031 0.210393159512116 0.200694302373458 0.189762852769195 0.177659653834848 0.165178138719136 0.15308206798918 0.14314971078869 0.137591987004222 0.139568106296429 0.150982615065658 0.172130793019057 0.201635321647441 0.236880688507725 0.275827632251918 0.313876936634754 0.348646650326226 0.371982142682313 0.379716603420956 0.359579865539205 0.305966684306097 0.210416627763224 0.0775417251117686 0.043520837279642 0.111994568326383 0.16232665052461 0.195751471906328 0.217565768412643 0.228371572562558 0.233237702863869 0.231796208927578 0.227428579097487 0.21949044706629 0.209828474463606 0.197940099380319 0.184703676939707 0.169901022284829 0.154180438045671 0.137929699768863 0.122805836870526 0.111233350395817 0.108014539758851 0.117070567629757 0.139464843530645 0.172690971700686 0.213309185739589 0.25908907995943 0.305240661910948 0.349940040127864 0.384002929175802 0.403413252589749 0.392592764286405 0.344204471052788 0.243267489368135 0.0923708061002804 0.0472819008592833 0.12041089019416 0.172963563157159 0.205928512128228 0.226741271345548 0.235226471714196 0.238073720773672 0.234144449248458 0.227708294803473 0.217621447306415 0.206132506085071 0.192407118943669 0.177436188737592 0.160677070298403 0.142590042142167 0.122950771436125 0.102774311973153 0.0836382649901266 0.0716886918342429 0.0755864949532322 0.0990968736065287 0.136290070479256 0.181940063717715 0.233885300540069 0.287451514481286 0.341949008234901 0.387264071891583 0.420320168727234 0.421683449484166 0.382658926470058 0.279317844037802 0.11045974574583 0.0513396352944495 0.129752331392241 0.184378167069756 0.216207500757179 0.235212042405065 0.240608039092682 0.24078990061344 0.233904154564998 0.225157528189781 0.212868169513691 0.199803457016299 0.184776461869633 0.16896936519243 0.151499183114451 0.132764711687598 0.111912688335287 0.0890777492339477 0.063551416282242 0.0376298874128353 0.0260312476348069 0.0539108116867745 0.0966792973938204 0.146145570408517 0.202288540597927 0.26112408963924 0.324001494294359 0.38012758395086 0.427796640461062 0.443819956985754 0.418385663536331 0.316319712255959 0.130560775292747 0.0582266315683338 0.142073723599975 0.198011876903276 0.226069849972254 0.241828735044527 0.242324917272557 0.23902663358156 0.228510596413986 0.217371671266736 0.203184867731155 0.189352680421573 0.174245664218398 0.159447349829178 0.143816924228144 0.127895217372921 0.110616831303114 0.0920220481472419 0.0713779801104569 0.0492995492956342 0.0311829686572209 0.0380395040456151 0.0722657117301992 0.1161862478731 0.170232460917242 0.228895686568779 0.29636344394088 0.360616152456939 0.423244311994491 0.456127021513315 0.450091316100041 0.355144183600083 0.156065353680943 0.0664082290306332 0.156692839882141 0.21311855619741 0.23605935869032 0.246711998367408 0.241221872613252 0.233305758861115 0.218820220880837 0.205434683217461 0.190090526364395 0.177103865091616 0.164370514624847 0.15396637643236 0.144252213695593 0.135966763079479 0.127926192797921 0.120065484707986 0.112092486959707 0.103731695869718 0.0972752060832178 0.0936086878591357 0.100908384372844 0.118924849845841 0.154612212094138 0.20041591552521 0.263618954458207 0.329950076525706 0.4041134108674 0.45426596080898 0.472068485594264 0.390836152601359 0.184306745283111 0.0830055313441356 0.17662794967833 0.231077089218897 0.242662235379429 0.245909345068659 0.231651041470755 0.218815653702037 0.200502663685521 0.18664991398881 0.173265065604836 0.165621641176637 0.160403925440766 0.159783688735241 0.161026716850944 0.164426953235812 0.168181802075073 0.171600907593724 0.174236159413139 0.174683445889856 0.174343729217962 0.171124438396855 0.169929301692228 0.168629744209513 0.178284811429221 0.196126440685947 0.237914101654994 0.291247136766841 0.36956007324492 0.433846004109386 0.481277488049683 0.423060430274647 0.222330020978332 0.103785619712919 0.199718433345496 0.247893244884961 0.245762108938227 0.237750447500249 0.214535102718545 0.197017343176031 0.178351419418732 0.170259742323157 0.166500602191828 0.172044204001689 0.180821506555034 0.194194748770396 0.20813784197271 0.222778244394179 0.236342635501224 0.248117629565119 0.257955104358863 0.264123256740333 0.268049013735926 0.266591219205251 0.263586355066345 0.254171127059444 0.247323358855761 0.23754604715294 0.245693572398049 0.265431120535188 0.325468455119473 0.391854025300336 0.467319657414419 0.440915795727135 0.262835923576501 0.148181250924639 0.223666798597455 0.257253142139475 0.229940547372209 0.210812262243629 0.180868637216394 0.170197213408863 0.165881666557003 0.178929289115475 0.196082553846386 0.220601569475585 0.244619596946792 0.270090660505447 0.293545388503383 0.315729579692441 0.335450194849433 0.3522173839659 0.366235930888797 0.375697776448789 0.382152916059263 0.382065464791627 0.378869958958056 0.366436665466279 0.352188645187476 0.326898743281174 0.307131541591246 0.283731291704866 0.298443335270928 0.33389619168137 0.425929028548154 0.437330214142568 0.317870613560834 0.19486595355157 0.238890111432597 0.24323582223044 0.195773548170478 0.180489305763791 0.174205584415122 0.201067272144705 0.22999796792349 0.268970827010379 0.303598998678832 0.339760869782276 0.371539148710883 0.402130309843837 0.429088493057727 0.453592333825938 0.474932975406031 0.492788845774637 0.50760266620215 0.517608602849328 0.524479169363967 0.524494953099919 0.521131410034423 0.507649973790513 0.491179865490411 0.459917552173755 0.427925366506294 0.376490067544848 0.340616641422423 0.304722288140777 0.358442951864947 0.391399056465441 0.354865479287556 0.275533558446859 0.198649625262313 0.208205902134009 0.20812115502968 0.267422057461068 0.318008811103499 0.376221046095842 0.422348059797433 0.46802175887359 0.505116709065167 0.54032111574835 0.569806875844849 0.596954276927686 0.620130933734411 0.640602907847415 0.658017141791158 0.672157418519836 0.683631987694237 0.690814202790984 0.695481882201084 0.694029369680877 0.690122822831964 0.677274449451522 0.662301666879427 0.633395637260459 0.60272458062611 0.548878048281823 0.495161091366214 0.406449592318921 0.358681145578839 0.311114732131047 0.38221121547494 0.26692012921967 0.316860584043587 0.488588761287514 0.569732978409642 0.65106601390842 0.698243065848223 0.741178267548911 0.769493724364794 0.795457755678859 0.814277570892969 0.831642804622949 0.845119729036456 0.857346718342349 0.867239494587194 0.875768360158699 0.882726135136553 0.887983908281672 0.892060843555636 0.89380510711862 0.894649135482143 0.892082186282883 0.889194108597257 0.881076904573092 0.873437370867298 0.856939847415536 0.84186856992139 0.809174592728172 0.777405530445579 0.700858752998442 0.62159831582982 0.414416123374854 0.307268661344159
        </DataArray>
        <DataArray type="Float64" Name="pressure" format="ascii">