<?xml version="1.0"?>
<VTKFile type="UnstructuredGrid" version="0.1" byte_order="LittleEndian">
  <UnstructuredGrid>
    <Piece NumberOfPoints="1089" NumberOfCells="1024">
      <Points>
        <DataArray type="Float64" NumberOfComponents="3" format="ascii">
          0 0 0 0.03125 0 0 0.0625 0 0 0.09375 0 0 0.125 0 0 0.15625 0 0 0.1875 0 0 0.21875 0 0 0.25 0 0 0.28125 0 0 0.3125 0 0 0.34375 0 0 0.375 0 0 0.40625 0 0 0.4375 0 0 0.46875 0 0 0.5 0 0 0.53125 0 0 0.5625 0 0 0.59375 0 0 0.625 0 0 0.65625 0 0 0.6875 0 0 0.71875 0 0 0.75 0 0 0.78125 0 0 0.8125 0 0 0.84375 0 0 0.875 0 0 0.90625 0 0 0.9375 0 0 0.96875 0 0 1 0 0 0 0.03125 0 0.03125 0.03125 0 0.0625 0.03125 0 0.09375 0.03125 0 0.125 0.03125 0 0.15625 0.03125 0 0.1875 0.03125 0 0.21875 0.03125 0 0.25 0.03125 0 0.28125 0.03125 0 0.3125 0.03125 0 0.34375 0.03125 0 0.375 0.03125 0 0.40625 0.03125 0 0.4375 0.03125 0 0.46875 0.03125 0 0.5 0.03125 0 0.53125 0.03125 0 0.5625 0.03125 0 0.59375 0.03125 0 0.625 0.03125 0 0.65625 0.03125 0 0.6875 0.03125 0 0.71875 0.03125 0 0.75 0.03125 0 0.78125 0.03125 0 0.8125 0.03125 0 0.84375 0.03125 0 0.875 0.03125 0 0.90625 0.03125 0 0.9375 0.03125 0 0.96875 0.03125 0 1 0.03125 0 0 0.0625 0 0.03125 0.0625 0 0.0625 0.0625 0 0.09375 0.0625 0 0.125 0.0625 0 0.15625 0.0625 0 0.1875 0.0625 0 0.21875 0.0625 0 0.25 0.0625 0 0.28125 0.0625 0 0.3125 0.0625 0 0.34375 0.0625 0 0.375 0.0625 0 0.40625 0.0625 0 0.4375 0.0625 0 0.46875 0.0625 0 0.5 0.0625 0 0.53125 0.0625 0 0.5625 0.0625 0 0.59375 0.0625 0 0.625 0.0625 0 0.65625 0.0625 0 0.6875 0.0625 0 0.71875 0.0625 0 0.75 0.0625 0 0.78125 0.0625 0 0.8125 0.0625 0 0.84375 0.0625 0 0.875 0.0625 0 0.90625 0.0625 0 0.9375 0.0625 0 0.96875 0.0625 0 1 0.0625 0 0 0.09375 0 0.03125 0.09375 0 0.0625 0.09375 0 0.09375 0.09375 0 0.125 0.09375 0 0.15625 0.09375 0 0.1875 0.09375 0 0.21875 0.09375 0 0.25 0.09375 0 0.28125 0.09375 0 0.3125 0.09375 0 0.34375 0.09375 0 0.375 0.09375 0 0.40625 0.09375 0 0.4375 0.09375 0 0.46875 0.09375 0 0.5 0.09375 0 0.53125 0.09375 0 0.5625 0.09375 0 0.59375 0.09375 0 0.625 0.09375 0 0.65625 0.09375 0 0.6875 0.09375 0 0.71875 0.09375 0 0.75 0.09375 0 0.78125 0.09375 0 0.8125 0.09375 0 0.84375 0.09375 0 0.875 0.09375 0 0.90625 0.09375 0 0.9375 0.09375 0 0.96875 0.09375 0 1 0.09375 0 0 0.125 0 0.03125 0.125 0 0.0625 0.125 0 0.09375 0.125 0 0.125 0.125 0 0.15625 0.125 0 0.1875 0.125 0 0.21875 0.125 0 0.25 0.125 0 0.28125 0.125 0 0.3125 0.125 0 0.34375 0.125 0 0.375 0.125 0 0.40625 0.125 0 0.4375 0.125 0 0.46875 0.125 0 0.5 0.125 0 0.53125 0.125 0 0.5625 0.125 0 0.59375 0.125 0 0.625 0.125 0 0.65625 0.125 0 0.6875 0.125 0 0.71875 0.125 0 0.75 0.125 0 0.78125 0.125 0 0.8125 0.125 0 0.84375 0.125 0 0.875 0.125 0 0.90625 0.125 0 0.9375 0.125 0 0.96875 0.125 0 1 0.125 0 0 0.15625 0 0.03125 0.15625 0 0.0625 0.15625 0 0.09375 0.15625 0 0.125 0.15625 0 0.15625 0.15625 0 0.1875 0.15625 0 0.21875 0.15625 0 0.25 0.15625 0 0.28125 0.15625 0 0.3125 0.15625 0 0.34375 0.15625 0 0.375 0.15625 0 0.40625 0.15625 0 0.4375 0.15625 0 0.46875 0.15625 0 0.5 0.15625 0 0.53125 0.15625 0 0.5625 0.15625 0 0.59375 0.15625 0 0.625 0.15625 0 0.65625 0.15625 0 0.6875 0.15625 0 0.71875 0.15625 0 0.75 0.15625 0 0.78125 0.15625 0 0.8125 0.15625 0 0.84375 0.15625 0 0.875 0.15625 0 0.90625 0.15625 0 0.9375 0.15625 0 0.96875 0.15625 0 1 0.15625 0 0 0.1875 0 0.03125 0.1875 0 0.0625 0.1875 0 0.09375 0.1875 0 0.125 0.1875 0 0.15625 0.1875 0 0.1875 0.1875 0 0.21875 0.1875 0 0.25 0.1875 0 0.28125 0.1875 0 0.3125 0.1875 0 0.34375 0.1875 0 0.375 0.1875 0 0.40625 0.1875 0 0.4375 0.1875 0 0.46875 0.1875 0 0.5 0.1875 0 0.53125 0.1875 0 0.5625 0.1875 0 0.59375 0.1875 0 0.625 0.1875 0 0.65625 0.1875 0 0.6875 0.1875 0 0.71875 0.1875 0 0.75 0.1875 0 0.78125 0.1875 0 0.8125 0.1875 0 0.84375 0.1875 0 0.875 0.1875 0 0.90625 0.1875 0 0.9375 0.1875 0 0.96875 0.1875 0 1 0.1875 0 0 0.21875 0 0.03125 0.21875 0 0.0625 0.21875 0 0.09375 0.21875 0 0.125 0.21875 0 0.15625 0.21875 0 0.1875 0.21875 0 0.21875 0.21875 0 0.25 0.21875 0 0.28125 0.21875 0 0.3125 0.21875 0 0.34375 0.21875 0 0.375 0.21875 0 0.40625 0.21875 0 0.4375 0.21875 0 0.46875 0.21875 0 0.5 0.21875 0 0.53125 0.21875 0 0.5625 0.21875 0 0.59375 0.21875 0 0.625 0.21875 0 0.65625 0.21875 0 0.6875 0.21875 0 0.71875 0.21875 0 0.75 0.21875 0 0.78125 0.21875 0 0.8125 0.21875 0 0.84375 0.21875 0 0.875 0.21875 0 0.90625 0.21875 0 0.9375 0.21875 0 0.96875 0.21875 0 1 0.21875 0 0 0.25 0 0.03125 0.25 0 0.0625 0.25 0 0.09375 0.25 0 0.125 0.25 0 0.15625 0.25 0 0.1875 0.25 0 0.21875 0.25 0 0.25 0.25 0 0.28125 0.25 0 0.3125 0.25 0 0.34375 0.25 0 0.375 0.25 0 0.40625 0.25 0 0.4375 0.25 0 0.46875 0.25 0 0.5 0.25 0 0.53125 0.25 0 0.5625 0.25 0 0.59375 0.25 0 0.625 0.25 0 0.65625 0.25 0 0.6875 0.25 0 0.71875 0.25 0 0.75 0.25 0 0.78125 0.25 0 0.8125 0.25 0 0.84375 0.25 0 0.875 0.25 0 0.90625 0.25 0 0.9375 0.25 0 0.96875 0.25 0 1 0.25 0 0 0.28125 0 0.03125 0.28125 0 0.0625 0.28125 0 0.09375 0.28125 0 0.125 0.28125 0 0.15625 0.28125 0 0.1875 0.28125 0 0.21875 0.28125 0 0.25 0.28125 0 0.28125 0.28125 0 0.3125 0.28125 0 0.34375 0.28125 0 0.375 0.28125 0 0.40625 0.28125 0 0.4375 0.28125 0 0.46875 0.28125 0 0.5 0.28125 0 0.53125 0.28125 0 0.5625 0.28125 0 0.59375 0.28125 0 0.625 0.28125 0 0.65625 0.28125 0 0.6875 0.28125 0 0.71875 0.28125 0 0.75 0.28125 0 0.78125 0.28125 0 0.8125 0.28125 0 0.84375 0.28125 0 0.875 0.28125 0 0.90625 0.28125 0 0.9375 0.28125 0 0.96875 0.28125 0 1 0.28125 0 0 0.3125 0 0.03125 0.3125 0 0.0625 0.3125 0 0.09375 0.3125 0 0.125 0.3125 0 0.15625 0.3125 0 0.1875 0.3125 0 0.21875 0.3125 0 0.25 0.3125 0 0.28125 0.3125 0 0.3125 0.3125 0 0.34375 0.3125 0 0.375 0.3125 0 0.40625 0.3125 0 0.4375 0.3125 0 0.46875 0.3125 0 0.5 0.3125 0 0.53125 0.3125 0 0.5625 0.3125 0 0.59375 0.3125 0 0.625 0.3125 0 0.65625 0.3125 0 0.6875 0.3125 0 0.71875 0.3125 0 0.75 0.3125 0 0.78125 0.3125 0 0.8125 0.3125 0 0.84375 0.3125 0 0.875 0.3125 0 0.90625 0.3125 0 0.9375 0.3125 0 0.96875 0.3125 0 1 0.3125 0 0 0.34375 0 0.03125 0.34375 0 0.0625 0.34375 0 0.09375 0.34375 0 0.125 0.34375 0 0.15625 0.34375 0 0.1875 0.34375 0 0.21875 0.34375 0 0.25 0.34375 0 0.28125 0.34375 0 0.3125 0.34375 0 0.34375 0.34375 0 0.375 0.34375 0 0.40625 0.34375 0 0.4375 0.34375 0 0.46875 0.34375 0 0.5 0.34375 0 0.53125 0.34375 0 0.5625 0.34375 0 0.59375 0.34375 0 0.625 0.34375 0 0.65625 0.34375 0 0.6875 0.34375 0 0.71875 0.34375 0 0.75 0.34375 0 0.78125 0.34375 0 0.8125 0.34375 0 0.84375 0.34375 0 0.875 0.34375 0 0.90625 0.34375 0 0.9375 0.34375 0 0.96875 0.34375 0 1 0.34375 0 0 0.375 0 0.03125 0.375 0 0.0625 0.375 0 0.09375 0.375 0 0.125 0.375 0 0.15625 0.375 0 0.1875 0.375 0 0.21875 0.375 0 0.25 0.375 0 0.28125 0.375 0 0.3125 0.375 0 0.34375 0.375 0 0.375 0.375 0 0.40625 0.375 0 0.4375 0.375 0 0.46875 0.375 0 0.5 0.375 0 0.53125 0.375 0 0.5625 0.375 0 0.59375 0.375 0 0.625 0.375 0 0.65625 0.375 0 0.6875 0.375 0 0.71875 0.375 0 0.75 0.375 0 0.78125 0.375 0 0.8125 0.375 0 0.84375 0.375 0 0.875 0.375 0 0.90625 0.375 0 0.9375 0.375 0 0.96875 0.375 0 1 0.375 0 0 0.40625 0 0.03125 0.40625 0 0.0625 0.40625 0 0.09375 0.40625 0 0.125 0.40625 0 0.15625 0.40625 0 0.1875 0.40625 0 0.21875 0.40625 0 0.25 0.40625 0 0.28125 0.40625 0 0.3125 0.40625 0 0.34375 0.40625 0 0.375 0.40625 0 0.40625 0.40625 0 0.4375 0.40625 0 0.46875 0.40625 0 0.5 0.40625 0 0.53125 0.40625 0 0.5625 0.40625 0 0.59375 0.40625 0 0.625 0.40625 0 0.65625 0.40625 0 0.6875 0.40625 0 0.71875 0.40625 0 0.75 0.40625 0 0.78125 0.40625 0 0.8125 0.40625 0 0.84375 0.40625 0 0.875 0.40625 0 0.90625 0.40625 0 0.9375 0.40625 0 0.96875 0.40625 0 1 0.40625 0 0 0.4375 0 0.03125 0.4375 0 0.0625 0.4375 0 0.09375 0.4375 0 0.125 0.4375 0 0.15625 0.4375 0 0.1875 0.4375 0 0.21875 0.4375 0 0.25 0.4375 0 0.28125 0.4375 0 0.3125 0.4375 0 0.34375 0.4375 0 0.375 0.4375 0 0.40625 0.4375 0 0.4375 0.4375 0 0.46875 0.4375 0 0.5 0.4375 0 0.53125 0.4375 0 0.5625 0.4375 0 0.59375 0.4375 0 0.625 0.4375 0 0.65625 0.4375 0 0.6875 0.4375 0 0.71875 0.4375 0 0.75 0.4375 0 0.78125 0.4375 0 0.8125 0.4375 0 0.84375 0.4375 0 0.875 0.4375 0 0.90625 0.4375 0 0.9375 0.4375 0 0.96875 0.4375 0 1 0.4375 0 0 0.46875 0 0.03125 0.46875 0 0.0625 0.46875 0 0.09375 0.46875 0 0.125 0.46875 0 0.15625 0.46875 0 0.1875 0.46875 0 0.21875 0.46875 0 0.25 0.46875 0 0.28125 0.46875 0 0.3125 0.46875 0 0.34375 0.46875 0 0.375 0.46875 0 0.40625 0.46875 0 0.4375 0.46875 0 0.46875 0.46875 0 0.5 0.46875 0 0.53125 0.46875 0 0.5625 0.46875 0 0.59375 0.46875 0 0.625 0.46875 0 0.65625 0.46875 0 0.6875 0.46875 0 0.71875 0.46875 0 0.75 0.46875 0 0.78125 0.46875 0 0.8125 0.46875 0 0.84375 0.46875 0 0.875 0.46875 0 0.90625 0.46875 0 0.9375 0.46875 0 0.96875 0.46875 0 1 0.46875 0 0 0.5 0 0.03125 0.5 0 0.0625 0.5 0 0.09375 0.5 0 0.125 0.5 0 0.15625 0.5 0 0.1875 0.5 0 0.21875 0.5 0 0.25 0.5 0 0.28125 0.5 0 0.3125 0.5 0 0.34375 0.5 0 0.375 0.5 0 0.40625 0.5 0 0.4375 0.5 0 0.46875 0.5 0 0.5 0.5 0 0.53125 0.5 0 0.5625 0.5 0 0.59375 0.5 0 0.625 0.5 0 0.65625 0.5 0 0.6875 0.5 0 0.71875 0.5 0 0.75 0.5 0 0.78125 0.5 0 0.8125 0.5 0 0.84375 0.5 0 0.875 0.5 0 0.90625 0.5 0 0.9375 0.5 0 0.96875 0.5 0 1 0.5 0 0 0.53125 0 0.03125 0.53125 0 0.0625 0.53125 0 0.09375 0.53125 0 0.125 0.53125 0 0.15625 0.53125 0 0.1875 0.53125 0 0.21875 0.53125 0 0.25 0.53125 0 0.28125 0.53125 0 0.3125 0.53125 0 0.34375 0.53125 0 0.375 0.53125 0 0.40625 0.53125 0 0.4375 0.53125 0 0.46875 0.53125 0 0.5 0.53125 0 0.53125 0.53125 0 0.5625 0.53125 0 0.59375 0.53125 0 0.625 0.53125 0 0.65625 0.53125 0 0.6875 0.53125 0 0.71875 0.53125 0 0.75 0.53125 0 0.78125 0.53125 0 0.8125 0.53125 0 0.84375 0.53125 0 0.875 0.53125 0 0.90625 0.53125 0 0.9375 0.53125 0 0.96875 0.53125 0 1 0.53125 0 0 0.5625 0 0.03125 0.5625 0 0.0625 0.5625 0 0.09375 0.5625 0 0.125 0.5625 0 0.15625 0.5625 0 0.1875 0.5625 0 0.21875 0.5625 0 0.25 0.5625 0 0.28125 0.5625 0 0.3125 0.5625 0 0.34375 0.5625 0 0.375 0.5625 0 0.40625 0.5625 0 0.4375 0.5625 0 0.46875 0.5625 0 0.5 0.5625 0 0.53125 0.5625 0 0.5625 0.5625 0 0.59375 0.5625 0 0.625 0.5625 0 0.65625 0.5625 0 0.6875 0.5625 0 0.71875 0.5625 0 0.75 0.5625 0 0.78125 0.5625 0 0
[...]
      <CellData>
        <DataArray type="Float64" Name="velocity_magnitude" format="ascii">
          0.000215461296634242 0.000238328742927587 9.62116101710232e-05 0.000430646711585702 0.00120091344595634 0.00217480208228572 0.00330312400767916 0.00448500871223085 0.0057260454474235 0.00692381458194448 0.00810098922352536 0.00916631894760432 0.0101344896761996 0.0109305009961677 0.0115508885207903 0.0119426708282696 0.0120855435501337 0.0119568940169553 0.011531959010393 0.0108320278293822 0.00984137117608953 0.00863378349278408 0.00722026336585011 0.00572254707649934 0.00418573487761085 0.00274938302478975 0.00148639169147871 0.000494171946362425 0.000140385236008272 0.000452129270963681 0.000360974422753287 0.000187528043599286 0.000264443851324207 0.000262500071691082 0.00125266675097395 0.00292044512628613 0.00508756061868209 0.00769256598584495 0.0106264049923511 0.013711218969645 0.016897904562112 0.0199981093482696 0.0229897992061825 0.0257037485005409 0.0281145506866841 0.0300818717507352 0.0315652498701303 0.0324647539846723 0.0327316204058573 0.032323920285022 0.0312043224955225 0.0294120004917169 0.0269516460514873 0.0239623645725546 0.0205158898205697 0.0168421106817283 0.0130829015914981 0.00950186172788951 0.0062826222561177 0.00360648313483428 0.0016439300394288 0.000339489262157628 0.000239498409391483 0.000365391223449209 0.000119983788890297 0.00130952853666076 0.00346794724448528 0.00646185404783618 0.0100377627065391 0.0141355980546116 0.0186208438417931 0.0232882395924646 0.0280506576293438 0.0326719968003258 0.037088814484402 0.0410834152279198 0.0445932297247004 0.0474382668253355 0.0495496256097482 0.0508021970044281 0.0511316737352652 0.050489157177213 0.0488365440932678 0.0462276137677025 0.0426859409481794 0.0383871432371339 0.03344135643718 0.0281303000333545 0.0226504190153617 0.0173174194928128 0.0123780511915875 0.00804389398274971 0.00455339242532852 0.001866532938406 0.000260212130467469 0.000475240535980062 0.000444256559662229 0.00311540028975469 0.0066586052859231 0.0110651484141801 0.0160251618938557 0.0214719774183036 0.0272722046637677 0.0332177714027465 0.0392107905037341 0.0449914099079525 0.0504733892006358 0.0554091329640999 0.0597135361898795 0.0631833443611051 0.0657347556013423 0.0672319703043909 0.0676057558069465 0.0668094483698969 0.064808504451858 0.0616688240132725 0.0574207267866019 0.0522540773466717 0.0462846967289694 0.0398037296611395 0.0330144585959484 0.0262371643518416 0.0197429789616549 0.0137614369077061 0.00861136235884793 0.00433413747235734 0.00137988257053244 0.000285945775342535 0.00133694855034599 0.0056557011683589 0.0107671899102898 0.0166426194717978 0.0229504753718233 0.0296285668236906 0.0365605023379205 0.0435503523453693 0.0505110278691036 0.0571758746375293 0.0634552346921716 0.0690857400018064 0.0739750988434758 0.0779082427573688 0.0807977253639301 0.0825055799913317 0.0829631312189959 0.0821304490142262 0.0799731049548575 0.0765629413559288 0.0719206396696264 0.066230741085001 0.0595843932120993 0.0522519914776422 0.0444081627884293 0.0363514160091345 0.028359569354319 0.0206806792408311 0.0137321979366386 0.00765489399670624 0.00309288665506971 0.000173728123239943 0.00256741017706332 0.00894414970063869 0.0158223275736345 0.0232050225992111 0.030800302472949 0.0385686318350336 0.0464379886020204 0.0542364804914786 0.0619095124409193 0.0691976352614672 0.0760261989814577 0.0821290351139463 0.0874209527623789 0.091685492055081 0.0948411708629499 0.0967546582889952 0.0973613533503944 0.0966302498187843 0.0945218216548694 0.0911063119763492 0.0863778427038298 0.0804972684950183 0.0735023036147421 0.0656176035734726 0.0569567316553349 0.0477781248135633 0.0383467356941163 0.0289320055485406 0.0200509518893698 0.0119567362463624 0.00548650691288252 0.000870615088813421 0.00412632803141932 0.0129684539745213 0.0218193695586451 0.0307576318936426 0.0395854846969941 0.0483151176183609 0.0569471132018497 0.0653485405262143 0.0735167789106856 0.0812117144436112 0.0883898791864449 0.0947927142892729 0.100354625454628 0.104865407772308 0.108257411942025 0.110405779743728 0.111251455029559 0.11077347378641 0.108919687084867 0.105751251772358 0.101220347989862 0.0954484176140545 0.0883947039844245 0.0802180890087246 0.0709422681779399 0.0607694045262157 0.0499308311843072 0.0387130257026333 0.027729770031777 0.0173504285532093 0.0086127053141216 0.00184655122653324 0.00595475394253209 0.0176398945311903 0.0286716476605454 0.0392222659314735 0.0492362599856381 0.0588020971220538 0.0680261448006471 0.0768282806594314 0.0852797098320663 0.0931705419346117 0.100504976915992 0.107041811720421 0.112747200380363 0.117424708419729 0.121028025474351 0.123444302666856 0.124622159105551 0.124548048133449 0.123154421665209 0.120487005707231 0.116442412751355 0.111089774662602 0.104285569676602 0.0961050519018053 0.086449167369755 0.0754453973606186 0.0632579474283899 0.0501798277208992 0.0369049437091934 0.0239254783564407 0.0124958743539566 0.0030701976233511 0.00805819244218526 0.0229388520761052 0.0363481818467847 0.0485723981312644 0.0597380986294988 0.070031661906242 0.0796960617628095 0.0887171012210662 0.0972610977312959 0.105157649545864 0.112474575307795 0.118995942603808 0.124731688121295 0.129505090386574 0.133299856249699 0.13601654320031 0.137618120503538 0.138087757822703 0.137350369032865 0.135428565469181 0.132154998483697 0.127535932770594 0.12130346685172 0.113432735171738 0.103665788426651 0.09203240191227 0.0785845671510938 0.063601230118872 0.0478294014130459 0.0318901451418737 0.0172800844003656 0.00461026679613014 0.010368326861575 0.0287467185427107 0.0447148322016932 0.0586776264700985 0.0709752682411792 0.0819046442453411 0.0918741849209241 0.100943602655388 0.10939620296903 0.117107739785399 0.124226641857104 0.130569588683431 0.136203312070743 0.140978177762234 0.144917001345168 0.147939188389549 0.150026739193594 0.15116104722978 0.151260259787644 0.150324275978597 0.148114230656733 0.144567908174432 0.139271071769198 0.132083638331134 0.12254569804118 0.110561593021512 0.0960088212892185 0.0791215809395132 0.0606540067745225 0.0413623624136872 0.0230178361640198 0.00645376981148047 0.0128846336500383 0.0350247167200747 0.0537060079180275 0.0694625167876808 0.0828758165342617 0.0943600894860359 0.104515375857307 0.113478013878888 0.121669380900934 0.129013619685027 0.135756713909341 0.141752382432973 0.147138087771718 0.151797933152507 0.155805308839495 0.159105744175735 0.16170801179288 0.16359896610691 0.164690943428697 0.164965645729534 0.164110688867433 0.161993401524489 0.158034353616115 0.151965067024767 0.143076517753177 0.131116167093463 0.11570845241568 0.096999322738288 0.0756795410323274 0.052638506953493 0.0299472394679404 0.0087259074829165 0.0155379354867303 0.0416473389198378 0.0631748804010841 0.0807798075900789 0.0953063881434141 0.107283250380127 0.117525206280254 0.126239792256485 0.134007004934442 0.140796002468929 0.146968261579579 0.152416494019835 0.157365326862222 0.161740244575283 0.165681245360238 0.169170912823261 0.172259369056907 0.174947566362759 0.177150436190441 0.178839633314747 0.17963096262819 0.179322773053035 0.177152240640495 0.172711696158711 0.164990544814275 0.153546335135305 0.137653573115456 0.117313787424487 0.0930503726822746 0.0658705044956934 0.038159374413489 0.011425670435941 0.0183155397817305 0.0485533572951833 0.0730219807361733 0.0925058964502588 0.108132547672157 0.120536550741035 0.130771972311843 0.139104695859987 0.146294850977812 0.15234517840092 0.157750315571784 0.162437425560143 0.166735088584999 0.170615408672201 0.174304192046363 0.177835490860743 0.18132045256908 0.184791225015342 0.188175177511769 0.191446154470168 0.194158740807773 0.196047002472852 0.196152213047564 0.193921192566866 0.187988779859277 0.177691971812429 0.161842660545683 0.140229307559391 0.113061359526889 0.0814211137583608 0.0479856693858158 0.0147405103623254 0.0211493114637769 0.0556197381230387 0.0831053642199436 0.10450000143898 0.121228417014766 0.134012893647028 0.1441694663789 0.152000486735412 0.158467889844354 0.163588654277707 0.168009105919325 0.171680412263714 0.175054296961533 0.178152678089309 0.181313393091225 0.184639392595004 0.188335173220128 0.192487394415016 0.19705334333268 0.2020266920263 0.206915143421409 0.211394537031594 0.214298661966888 0.214926704552011 0.211504384156847 0.203123733903739 0.188007307244015 0.165653607621577 0.135763373897561 0.0994182097626441 0.0595196951769261 0.0186600528015078 0.024023939697778 0.0627788914868022 0.0933080273511083 0.116600969351883 0.134400404088685 0.147490768287392 0.157484362827375 0.164687941908859 0.170294378853956 0.174303533017122 0.177532697532066 0.17993425964696 0.182099611159563 0.184094496790947 0.186395597844515 0.189192466024417 0.192823003283344 0.197470033846786 0.203139634562201 0.209862425142144 0.217132560663118 0.224572407108668 0.230806579117944 0.234991290324894 0.234894222989264 0.229350931999621 0.215858844221696 0.193548517731458 0.161361103102158 0.12025337507078 0.0731937375258176 0.0234610940030739 0.0268702379918664 0.069918600485138 0.103509614273401 0.128698640991563 0.147556892873878 0.160900171923361 0.170667133517991 0.177132172647289 0.181747609266252 0.184459122262583 0.186274617952966 0.18711707260203 0.187733680051059 0.188219546170438 0.189222251665838 0.191031486043181 0.194184083510777 0.198988216404055 0.205575871525694 0.214018086898652 0.223827778418285 0.234576242083101 0.244675445256243 0.253147909511987 0.257257304044234 0.25558788394989 0.244774075989682 0.223507455695154 0.189669045014605 0.143916866535165 0.0890276179954257 0.0290800741795324 0.0297015430772158 0.0770100818087976 0.113618814094398 0.140618807954927 0.160455822831457 0.173924685066974 0.183360653052045 0.188945043636383 0.192443392066428 0.193689797249832 0.1939097953125 0.192947195557732 0.191715056093141 0.190302119417244 0.18954957501185 0.189844647409678 0.192002547615117 0.19648131452785 0.203677881511593 0.213688310127638 0.226097673056504 0.240424820517497 0.254876379187409 0.268359088241487 0.277598737164555 0.280962079950615 0.274083046311779 0.255173302630805 0.220692148356032 0.170775843404068 0.107572118082069 0.0359382446882775 0.0324360449975341 0.0839595498876313 0.123555383597346 0.152315551303689 0.17307294748432 0.186573178884556 0.195589353470657 0.200169284291139 0.202429169668516 0.20204529849737 0.200482473124134 0.197455831088055 0.194047672882799 0.190293056544846 0.187236374613855 0.185352490078483 0.185814114105498 0.189297459513111 0.196620360940403 0.207908195452356 0.22289280142978 0.241013023893326 0.260262239684922 0.27944479049946 0.294726282777121 0.304313145146696 0.302725907179149 0.287678447330745 0.253827420167385 0.200511603704678 0.128647286245357 0.0438432154484774 0.0351848652991652 0.0908662932389372 0.133339127132198 0.163637694413969 0.185133263124472 0.198403580853226 0.206828863953537 0.210200096998088 0.211097678450625 0.208943008380008 0.20549146718796 0.20025083951063 0.194475735848694 0.188068252667777 0.182257360324754 0.177548771398039 0.175533068131953 0.177168750140768 0.183914477364251 0.196000602815384 0.213369876967829 0.235351392029024 0.259714075438717 0.285183009999587 0.307354629459299 0.324392679544337 0.32958841156144 0.320243216188171 0.288751810500156 0.233398217921236 0.152949600582538 0.0534590596905842 0.0378162913739904 0.0976537991616535 0.142938540000007 0.174650932579105 0.196714478993205 0.20956549005559 0.217221760593576 0.219213023178218 0.218608467392536 0.214548865401503 0.209096763950672 0.201506591675402 0.193193853205186 0.183845862808718 0.174827906155231 0.16657707268843 0.161109379290477 0.159757262173349 0.164878161106916 0.17711946603899 0.196606387901452 0.222472744618719 0.252191151512627 0.284399813697318 0.314165697870502 0.33973913789601 0.353165942457212 0.351414305251083 0.324246049686277 0.268570315239178 0.179907229810973 0.0643453498943905 0.0406899853824876 0.104711337369992 0.15263829661619 0.185250770632309 0.207511763484728 0.219397331835318 0.225983937017282 0.226251930651588 0.22400519781338 0.217925770833218 0.210490364205414 0.200593467225947 0.189832237306304 0.17756985281149 0.165231506024836 0.152996260626446 0.143195856922908 0.137518148474076 0.139592164597879 0.150961150848047 0.172100727154796 0.201694727725957 0.236793550941968 0.275957372752678 0.31375701379445 0.3488207158756 0.371863167432679 0.379901441151304 0.359495786436147 0.306120076011052 0.210396901899709 0.0775935974475101 0.0435269769907012 0.111953712865404 0.162420841191276 0.19568128353477 0.217720418155704 0.228283445661849 0.233416895835048 0.231702505794933 0.227599190887688 0.219399361857659 0.209968825117072 0.19785185519466 0.184807410633088 0.16980670896517 0.154254453566692 0.137816494601855 0.122860314527155 0.111108493981574 0.108038508630363 0.117013012767455 0.139426804670759 0.172750801607183 0.213214676219188 0.259230508922656 0.305111538919139 0.350115795512292 0.383861762848293 0.403572008917275 0.39245871055925 0.344291732407176 0.243160583111041 0.09234460488078 0.0472977959294605 0.120344247578172 0.173088972055002 0.205799784994465 0.226921645607932 0.23506799701971 0.238260947657982 0.233985435777563 0.227873275806683 0.217478032783083 0.206265870796266 0.192281244601156 0.177542719479195 0.160560582661563 0.142682638152578 0.122827664181496 0.102869505803928 0.0834984663510614 0.0717685447510426 0.0755264862698494 0.0990557027985776 0.136372374010218 0.181810387240731 0.234050554382326 0.287279035685658 0.342160270450726 0.387088016767751 0.420538674081787 0.421546664979991 0.38283408373019 0.279261013065335 0.110507328386197 0.0513476894834261 0.129701506485725 0.184474680651764 0.216120360619103 0.235366712379629 0.24049910868298 0.240968733328332 0.233783978186014 0.225332431229363 0.212745323936099 0.19995728340619 0.184656459367289 0.169098274702795 0.15138040268211 0.132876526698583 0.111785758654224 0.0891879289187947 0.0633944825061645 0.037755759915274 0.0259268963873259 0.0538396867146946 0.0967982916755017 0.146010495276164 0.202467138360317 0.260963113324712 0.324206125636235 0.379965346733568 0.427984371822325 0.443677738692646 0.418504340907377 0.316217342832165 0.130558497274645 0.058248868264663 0.141983459380279 0.19815870536304 0.225903579979713 0.24203619249521 0.242135027981014 0.239242112515096 0.228333516943902 0.217568333472527 0.203032355640371 0.189524936212822 0.174112418634681 0.159596934097972 0.143698716086044 0.128019776847085 0.110514175396499 0.0921187194524895 0.071306953645375 0.0493437210864779 0.0312796663586542 0.0378744691661358 0.0724848702184891 0.115998609774995 0.170453330715915 0.228683215714148 0.296602636034842 0.360390507317578 0.423481662030555 0.455933761679402 0.450273844145613 0.355037527069693 0.156099017659654 0.0664353441915917 0.156624134360684 0.213225679253776 0.235954215641883 0.246857330163913 0.24110179571191 0.233462292040809 0.218684476437068 0.205592894198391 0.189940858315771 0.177260350032449 0.164226565032386 0.154112283982491 0.144142365045691 0.136086163370208 0.127878929641588 0.120132775610234 0.112129752075883 0.10371660178967 0.0974088884251901 0.0934859736606263 0.101114335047289 0.118738677883564 0.154823864959506 0.200235770869792 0.263827993400938 0.32979348016162 0.404313164893995 0.454136573754775 0.472221550795274 0.390750283230058 0.184350003011228 0.0830419382385525 0.176522041285782 0.23122875240446 0.242483027922352 0.24611641682287 0.231465043510371 0.219031778455029 0.200345253464427 0.186859842113308 0.173136947105012 0.165818038058135 0.160295545377772 0.159945304511644 0.160951549834209 0.164520910664957 0.168167236583767 0.171612699035188 0.174296225687536 0.174625811337558 0.174469593615995 0.171029396911193 0.170094416241321 0.168524622752606 0.17846119322304 0.195993064696626 0.238097661225689 0.291050311447093 0.369753566695826 0.433634230177134 0.481433665385596 0.422911685817657 0.222350347788348 0.103871442716305 0.199605908713961 0.248033014537355 0.245628078605789 0.237885030728866 0.214409963499168 0.197133907770358 0.178207138042891 0.170388030195224 0.16634334077658 0.172188451207299 0.180697694493132 0.194323850922776 0.208084917340332 0.22285603762405 0.236373240097159 0.248122942228948 0.258059462186278 0.264057577673033 0.268196584218259 0.266478728626954 0.26373378464025 0.254050166917513 0.247438253630413 0.237449639154566 0.245790740525679 0.265357849243764 0.325606982361025 0.391778722595948 0.467489622260226 0.440848781423297 0.262945877578057 0.148236748452137 0.223570681909186 0.25736266911713 0.229823387661061 0.210934932572561 0.180802232001999 0.170308459318345 0.165862580994415 0.179046727864825 0.196043487349367 0.220729334687093 0.244561115195786 0.270193408406928 0.2935117038522 0.315771930495945 0.335475416291517 0.352188034228945 0.366326391163551 0.375614427655181 0.38228496926072 0.381971211679742 0.37899588257808 0.366387862498586 0.352251284782948 0.326933856935839 0.307101975806439 0.28379579184509 0.298399301084671 0.333825715369328 0.425964016916756 0.437186814360272 0.317888265524125 0.195008924017081 0.238735950277301 0.2433581519202 0.195680624413113 0.180496300249108 0.174171794267761 0.201062970868831 0.22993087756998 0.269029413100026 0.30351081501247 0.339856355178578 0.371467007186797 0.402218905365826 0.429064776322831 0.453635607297772 0.474975485831554 0.492766777811666 0.507706717575631 0.51752718332295 0.52461584464871 0.524386320509104 0.521250797241911 0.507563640128161 0.491227423468056 0.459909335195307 0.427863045889727 0.376598478792224 0.340482227379695 0.304873109460916 0.358473924293241 0.391395591393687 0.355013721840851 0.275535121952888 0.198721877290558 0.208024288929081 0.208356374908816 0.267237809620246 0.31817345936159 0.376137832962734 0.422410161983207 0.468031918101707 0.505099228316857 0.540383966171954 0.569759038450026 0.597016693195249 0.62010320796721 0.640623307148336 0.65804106500477 0.672119509057769 0.683712066383105 0.690730538929559 0.695595505198926 0.693938504873025 0.690220464335879 0.677230730356411 0.662324575186321 0.633455611577325 0.602622684474621 0.549069205129874 0.494919744662895 0.406727753611005 0.358374159780235 0.311203037987658 0.382147647221724 0.266741042024529 0.317067347422507 0.488401795524958 0.569868074645124 0.650955113037182 0.698304575741325 0.74114134817496 0.769494641953803 0.795478590765286 0.814240492890447 0.831693649216073 0.845074589217758 0.857394403995541 0.867215928790809 0.875784493043378 0.882743526952 0.887954859902515 0.892120756477444 0.893737397020831 0.894732318252554 0.892002918560707 0.889265888658991 0.881027884885877 0.873452710165671 0.856965170759213 0.84178961872404 0.809304018627387 0.777221150606218 0.701092404690686 0.621341360724651 0.414720693134891 0.307092944812932
        </DataArray>
        <DataArray type="Float64" Name="pressure" format="ascii">