<?xml version="1.0"?>
<VTKFile type="UnstructuredGrid" version="0.1" byte_order="LittleEndian">
  <UnstructuredGrid>
    <Piece NumberOfPoints="505" NumberOfCells="400">
      <Points>
        <DataArray type="Float64" NumberOfComponents="3" format="ascii">
          0 0 0 0.02 0 0 0.04 0 0 0.06 0 0 0.08 0 0 0.1 0 0 0.12 0 0 0.14 0 0 0.16 0 0 0.18 0 0 0.2 0 0 0.22 0 0 0.24 0 0 0.26 0 0 0.28 0 0 0.3 0 0 0.32 0 0 0.34 0 0 0.36 0 0 0.38 0 0 0.4 0 0 0.42 0 0 0.44 0 0 0.46 0 0 0.48 0 0 0.5 0 0 0.52 0 0 0.54 0 0 0.56 0 0 0.58 0 0 0.6 0 0 0.62 0 0 0.64 0 0 0.66 0 0 0.68 0 0 0.7 0 0 0.72 0 0 0.74 0 0 0.76 0 0 0.78 0 0 0.8 0 0 0.82 0 0 0.84 0 0 0.86 0 0 0.88 0 0 0.9 0 0 0.92 0 0 0.94 0 0 0.96 0 0 0.98 0 0 1 0 0 1.02 0 0 1.04 0 0 1.06 0 0 1.08 0 0 1.1 0 0 1.12 0 0 1.14 0 0 1.16 0 0 1.18 0 0 1.2 0 0 1.22 0 0 1.24 0 0 1.26 0 0 1.28 0 0 1.3 0 0 1.32 0 0 1.34 0 0 1.36 0 0 1.38 0 0 1.4 0 0 1.42 0 0 1.44 0 0 1.46 0 0 1.48 0 0 1.5 0 0 1.52 0 0 1.54 0 0 1.56 0 0 1.58 0 0 1.6 0 0 1.62 0 0 1.64 0 0 1.66 0 0 1.68 0 0 1.7 0 0 1.72 0 0 1.74 0 0 1.76 0 0 1.78 0 0 1.8 0 0 1.82 0 0 1.84 0 0 1.86 0 0 1.88 0 0 1.9 0 0 1.92 0 0 1.94 0 0 1.96 0 0 1.98 0 0 2 0 0 0 0.25 0 0.02 0.25 0 0.04 0.25 0 0.06 0.25 0 0.08 0.25 0 0.1 0.25 0 0.12 0.25 0 0.14 0.25 0 0.16 0.25 0 0.18 0.25 0 0.2 0.25 0 0.22 0.25 0 0.24 0.25 0 0.26 0.25 0 0.28 0.25 0 0.3 0.25 0 0.32 0.25 0 0.34 0.25 0 0.36 0.25 0 0.38 0.25 0 0.4 0.25 0 0.42 0.25 0 0.44 0.25 0 0.46 0.25 0 0.48 0.25 0 0.5 0.25 0 0.52 0.25 0 0.54 0.25 0 0.56 0.25 0 0.58 0.25 0 0.6 0.25 0 0.62 0.25 0 0.64 0.25 0 0.66 0.25 0 0.68 0.25 0 0.7 0.25 0 0.72 0.25 0 0.74 0.25 0 0.76 0.25 0 0.78 0.25 0 0.8 0.25 0 0.82 0.25 0 0.84 0.25 0 0.86 0.25 0 0.88 0.25 0 0.9 0.25 0 0.92 0.25 0 0.94 0.25 0 0.96 0.25 0 0.98 0.25 0 1 0.25 0 1.02 0.25 0 1.04 0.25 0 1.06 0.25 0 1.08 0.25 0 1.1 0.25 0 1.12 0.25 0 1.14 0.25 0 1.16 0.25 0 1.18 0.25 0 1.2 0.25 0 1.22 0.25 0 1.24 0.25 0 1.26 0.25 0 1.28 0.25 0 1.3 0.25 0 1.32 0.25 0 1.34 0.25 0 1.36 0.25 0 1.38 0.25 0 1.4 0.25 0 1.42 0.25 0 1.44 0.25 0 1.46 0.25 0 1.48 0.25 0 1.5 0.25 0 1.52 0.25 0 1.54 0.25 0 1.56 0.25 0 1.58 0.25 0 1.6 0.25 0 1.62 0.25 0 1.64 0.25 0 1.66 0.25 0 1.68 0.25 0 1.7 0.25 0 1.72 0.25 0 1.74 0.25 0 1.76 0.25 0 1.78 0.25 0 1.8 0.25 0 1.82 0.25 0 1.84 0.25 0 1.86 0.25 0 1.88 0.25 0 1.9 0.25 0 1.92 0.25 0 1.94 0.25 0 1.96 0.25 0 1.98 0.25 0 2 0.25 0 0 0.5 0 0.02 0.5 0 0.04 0.5 0 0.06 0.5 0 0.08 0.5 0 0.1 0.5 0 0.12 0.5 0 0.14 0.5 0 0.16 0.5 0 0.18 0.5 0 0.2 0.5 0 0.22 0.5 0 0.24 0.5 0 0.26 0.5 0 0.28 0.5 0 0.3 0.5 0 0.32 0.5 0 0.34 0.5 0 0.36 0.5 0 0.38 0.5 0 0.4 0.5 0 0.42 0.5 0 0.44 0.5 0 0.46 0.5 0 0.48 0.5 0 0.5 0.5 0 0.52 0.5 0 0.54 0.5 0 0.56 0.5 0 0.58 0.5 0 0.6 0.5 0 0.62 0.5 0 0.64 0.5 0 0.66 0.5 0 0.68 0.5 0 0.7 0.5 0 0.72 0.5 0 0.74 0.5 0 0.76 0.5 0 0.78 0.5 0 0.8 0.5 0 0.82 0.5 0 0.84 0.5 0 0.86 0.5 0 0.88 0.5 0 0.9 0.5 0 0.92 0.5 0 0.94 0.5 0 0.96 0.5 0 0.98 0.5 0 1 0.5 0 1.02 0.5 0 1.04 0.5 0 1.06 0.5 0 1.08 0.5 0 1.1 0.5 0 1.12 0.5 0 1.14 0.5 0 1.16 0.5 0 1.18 0.5 0 1.2 0.5 0 1.22 0.5 0 1.24 0.5 0 1.26 0.5 0 1.28 0.5 0 1.3 0.5 0 1.32 0.5 0 1.34 0.5 0 1.36 0.5 0 1.38 0.5 0 1.4 0.5 0 1.42 0.5 0 1.44 0.5 0 1.46 0.5 0 1.48 0.5 0 1.5 0.5 0 1.52 0.5 0 1.54 0.5 0 1.56 0.5 0 1.58 0.5 0 1.6 0.5 0 1.62 0.5 0 1.64 0.5 0 1.66 0.5 0 1.68 0.5 0 1.7 0.5 0 1.72 0.5 0 1.74 0.5 0 1.76 0.5 0 1.78 0.5 0 1.8 0.5 0 1.82 0.5 0 1.84 0.5 0 1.86 0.5 0 1.88 0.5 0 1.9 0.5 0 1.92 0.5 0 1.94 0.5 0 1.96 0.5 0 1.98 0.5 0 2 0.5 0 0 0.75 0 0.02 0.75 0 0.04 0.75 0 0.06 0.75 0 0.08 0.75 0 0.1 0.75 0 0.12 0.75 0 0.14 0.75 0 0.16 0.75 0 0.18 0.75 0 0.2 0.75 0 0.22 0.75 0 0.24 0.75 0 0.26 0.75 0 0.28 0.75 0 0.3 0.75 0 0.32 0.75 0 0.34 0.75 0 0.36 0.75 0 0.38 0.75 0 0.4 0.75 0 0.42 0.75 0 0.44 0.75 0 0.46 0.75 0 0.48 0.75 0 0.5 0.75 0 0.52 0.75 0 0.54 0.75 0 0.56 0.75 0 0.58 0.75 0 0.6 0.75 0 0.62 0.75 0 0.64 0.75 0 0.66 0.75 0 0.68 0.75 0 0.7 0.75 0 0.72 0.75 0 0.74 0.75 0 0.76 0.75 0 0.78 0.75 0 0.8 0.75 0 0.82 0.75 0 0.84 0.75 0 0.86 0.75 0 0.88 0.75 0 0.9 0.75 0 0.92 0.75 0 0.94 0.75 0 0.96 0.75 0 0.98 0.75 0 1 0.75 0 1.02 0.75 0 1.04 0.75 0 1.06 0.75 0 1.08 0.75 0 1.1 0.75 0 1.12 0.75 0 1.14 0.75 0 1.16 0.75 0 1.18 0.75 0 1.2 0.75 0 1.22 0.75 0 1.24 0.75 0 1.26 0.75 0 1.28 0.75 0 1.3 0.75 0 1.32 0.75 0 1.34 0.75 0 1.36 0.75 0 1.38 0.75 0 1.4 0.75 0 1.42 0.75 0 1.44 0.75 0 1.46 0.75 0 1.48 0.75 0 1.5 0.75 0 1.52 0.75 0 1.54 0.75 0 1.56 0.75 0 1.58 0.75 0 1.6 0.75 0 1.62 0.75 0 1.64 0.75 0 1.66 0.75 0 1.68 0.75 0 1.7 0.75 0 1.72 0.75 0 1.74 0.75 0 1.76 0.75 0 1.78 0.75 0 1.8 0.75 0 1.82 0.75 0 1.84 0.75 0 1.86 0.75 0 1.88 0.75 0 1.9 0.75 0 1.92 0.75 0 1.94 0.75 0 1.96 0.75 0 1.98 0.75 0 2 0.75 0 0 1 0 0.02 1 0 0.04 1 0 0.06 1 0 0.08 1 0 0.1 1 0 0.12 1 0 0.14 1 0 0.16 1 0 0.18 1 0 0.2 1 0 0.22 1 0 0.24 1 0 0.26 1 0 0.28 1 0 0.3 1 0 0.32 1 0 0.34 1 0 0.36 1 0 0.38 1 0 0.4 1 0 0.42 1 0 0.44 1 0 0.46 1 0 0.48 1 0 0.5 1 0 0.52 1 0 0.54 1 0 0.56 1 0 0.58 1 0 0.6 1 0 0.62 1 0 0.64 1 0 0.66 1 0 0.68 1 0 0.7 1 0 0.72 1 0 0.74 1 0 0.76 1 0 0.78 1 0 0.8 1 0 0.82 1 0 0.84 1 0 0.86 1 0 0.88 1 0 0.9 1 0 0.92 1 0 0.94 1 0 0.96 1 0 0.98 1 0 1 1 0 1.02 1 0 1.04 1 0 1.06 1 0 1.08 1 0 1.1 1 0 1.12 1 0 1.14 1 0 1.16 1 0 1.18 1 0 1.2 1 0 1.22 1 0 1.24 1 0 1.26 1 0 1.28 1 0 1.3 1 0 1.32 1 0 1.34 1 0 1.36 1 0 1.38 1 0 1.4 1 0 1.42 1 0 1.44 1 0 1.46 1 0 1.48 1 0 1.5 1 0 1.52 1 0 1.54 1 0 1.56 1 0 1.58 1 0 1.6 1 0 1.62 1 0 1.64 1 0 1.66 1 0 1.68 1 0 1.7 1 0 1.72 1 0 1.74 1 0 1.76 1 0 1.78 1 0 1.8 1 0 1.82 1 0 1.84 1 0 1.86 1 0 1.88 1 0 1.9 1 0 1.92 1 0 1.94 1 0 1.96 1 0 1.98 1 0 2 1 0
        </DataArray>
      </Points>
      <Cells>
        <DataArray type="Int32" Name="connectivity" format="ascii">
          0 1 102 101 1 2 103 102 2 3 104 103 3 4 105 104 4 5 106 105 5 6 107 106 6 7 108 107 7 8 109 108 8 9 110 109 9 10 111 110 10 11 112 111 11 12 113 112 12 13 114 113 13 14 115 114 14 15 116 115 15 16 117 116 16 17 118 117 17 18 119 118 18 19 120 119 19 20 121 120 20 21 122 121 21 22 123 122 22 23 124 123 23 24 125 124 24 25 126 125 25 26 127 126 26 27 128 127 27 28 129 128 28 29 130 129 29 30 131 130 30 31 132 131 31 32 133 132 32 33 134 133 33 34 135 134 34 35 136 135 35 36 137 136 36 37 138 137 37 38 139 138 38 39 140 139 39 40 141 140 40 41 142 141 41 42 143 142 42 43 144 143 43 44 145 144 44 45 146 145 45 46 147 146 46 47 148 147 47 48 149 148 48 49 150 149 49 50 151 150 50 51 152 151 51 52 153 152 52 53 154 153 53 54 155 154 54 55 156 155 55 56 157 156 56 57 158 157 57 58 159 158 58 59 160 159 59 60 161 160 60 61 162 161 61 62 163 162 62 63 164 163 63 64 165 164 64 65 166 165 65 66 167 166 66 67 168 167 67 68 169 168 68 69 170 169 69 70 171 170 70 71 172 171 71 72 173 172 72 73 174 173 73 74 175 174 74 75 176 175 75 76 177 176 76 77 178 177 77 78 179 178 78 79 180 179 79 80 181 180 80 81 182 181 81 82 183 182 82 83 184 183 83 84 185 184 84 85 186 185 85 86 187 186 86 87 188 187 87 88 189 188 88 89 190 189 89 90 191 190 90 91 192 191 91 92 193 192 92 93 194 193 93 94 195 194 94 95 196 195 95 96 197 196 96 97 198 197 97 98 199 198 98 99 200 199 99 100 201 200 101 102 203 202 102 103 204 203 103 104 205 204 104 105 206 205 105 106 207 206 106 107 208 207 107 108 209 208 108 109 210 209 109 110 211 210 110 111 212 211 111 112 213 212 112 113 214 213 113 114 215 214 114 115 216 215 115 116 217 216 116 117 218 217 117 118 219 218 118 119 220 219 119 120 221 220 120 121 222 221 121 122 223 222 122 123 224 223 123 124 225 224 124 125 226 225 125 126 227 226 126 127 228 227 127 128 229 228 128 129 230 229 129 130 231 230 130 131 232 231 131 132 233 232 132 133 234 233 133 134 235 234 134 135 236 235 135 136 237 236 136 137 238 237 137 138 239 238 138 139 240 239 139 140 241 240 140 141 242 241 141 142 243 242 142 143 244 243 143 144 245 244 144 145 246 245 145 146 247 246 146 147 248 247 147 148 249 248 148 149 250 249 149 150 251 250 150 151 252 251 151 152 253 252 152 153 254 253 153 154 255 254 154 155 256 255 155 156 257 256 156 157 258 257 157 158 259 258 158 159 260 259 159 160 261 260 160 161 262 261 161 162 263 262 162 163 264 263 163 164 265 264 164 165 266 265 165 166 267 266 166 167 268 267 167 168 269 268 168 169 270 269 169 170 271 270 170 171 272 271 171 172 273 272 172 173 274 273 173 174 275 274 174 175 276 275 175 176 277 276 176 177 278 277 177 178 279 278 178 179 280 279 179 180 281 280 180 181 282 281 181 182 283 282 182 183 284 283 183 184 285 284 184 185 286 285 185 186 287 286 186 187 288 287 187 188 289 288 188 189 290 289 189 190 291 290 190 191 292 291 191 192 293 292 192 193 294 293 193 194 295 294 194 195 296 295 195 196 297 296 196 197 298 297 197 198 299 298 198 199 300 299 199 200 301 300 200 201 302 301 202 203 304 303 203 204 305 304 204 205 306 305 205 206 307 306 206 207 308 307 207 208 309 308 208 209 310 309 209 210 311 310 210 211 312 311 211 212 313 312 212 213 314 313 213 214 315 314 214 215 316 315 215 216 317 316 216 217 318 317 217 218 319 318 218 219 320 319 219 220 321 320 220 221 322 321 221 222 323 322 222 223 324 323 223 224 325 324 224 225 326 325 225 226 327 326 226 227 328 327 227 228 329 328 228 229 330 329 229 230 331 330 230 231 332 331 231 232 333 332 232 233 334 333 233 234 335 334 234 235 336 335 235 236 337 336 236 237 338 337 237 238 339 338 238 239 340 339 239 240 341 340 240 241 342 341 241 242 343 342 242 243 344 343 243 244 345 344 244 245 346 345 245 246 347 346 246 247 348 347 247 248 349 348 248 249 350 349 249 250 351 350 250 251 352 351 251 252 353 352 252 253 354 353 253 254 355 354 254 255 356 355 255 256 357 356 256 257 358 357 257 258 359 358 258 259 360 359 259 260 361 360 260 261 362 361 261 262 363 362 262 263 364 363 263 264 365 364 264 265 366 365 265 266 367 366 266 267 368 367 267 268 369 368 268 269 370 369 269 270 371 370 270 271 372 371 271 272 373 372 272 273 374 373 273 274 375 374 274 275 376 375 275 276 377 376 276 277 378 377 277 278 379 378 278 279 380 379 279 280 381 380 280 281 382 381 281 282 383 382 282 283 384 383 283 284 385 384 284 285 386 385 285 286 387 386 286 287 388 387 287 288 389 388 288 289 390 389 289 290 391 390 290 291 392 391 291 292 393 392 292 293 394 393 293 294 395 394 294 295 396 395 295 296 397 396 296 297 398 397 297 298 399 398 298 299 400 399 299 300 401 400 300 301 402 401 301 302 403 402 303 304 405 404 304 305 406 405 305 306 407 406 306 307 408 407 307 308 409 408 308 309 410 409 309 310 411 410 310 311 412 411 311 312 413 412 312 313 414 413 313 314 415 414 314 315 416 415 315 316 417 416 316 317 418 417 317 318 419 418 318 319 420 419 319 320 421 420 320 321 422 421 321 322 423 422 322 323 424 423 323 324 425 424 324 325 426 425 325 326 427 426 326 327 428 427 327 328 429 428 328 329 430 429 329 330 431 430 330 331 432 431 331 332 433 432 332 333 434 433 333 334 435 434 334 335 436 435 335 336 437 436 336 337 438 437 337 338 439 438 338 339 440 439 339 340 441 440 340 341 442 441 341 342 443 442 342 343 444 443 343 344 445 444 344 345 446 445 345 346 447 446 346 347 448 447 347 348 449 448 348 349 450 449 349 350 451 450 350 351 452 451 351 352 453 452 352 353 454 453 353 354 455 454 354 355 456 455 355 356 457 456 356 357 458 457 357 358 459 458 358 359 460 459 359 360 461 460 360 361 462 461 361 362 463 462 362 363 464 463 363 364 465 464 364 365 466 465 365 366 467 466 366 367 468 467 367 368 469 468 368 369 470 469 369 370 471 470 370 371 472 471 371 372 473 472 372 373 474 473 373 374 475 474 374 375 476 475 375 376 477 476 376 377 478 477 377 378 479 478 378 379 480 479 379 380 481 480 380 381 482 481 381 382 483 482 382 383 484 483 383 384 485 484 384 385 486 485 385 386 487 486 386 387 488 487 387 388 489 488 388 389 490 489 389 390 491 490 390 391 492 491 391 392 493 492 392 393 494 493 393 394 495 494 394 395 496 495 395 396 497 496 396 397 498 497 397 398 499 498 398 399 500 499 399 400 501 500 400 401 502 501 401 402 503 502 402 403 504 503
        </DataArray>
        <DataArray type="Int32" Name="offsets" format="ascii">
          4 8 12 16 20 24 28 32 36 40 44 48 52 56 60 64 68 72 76 80 84 88 92 96 100 104 108 112 116 120 124 128 132 136 140 144 148 152 156 160 164 168 172 176 180 184 188 192 196 200 204 208 212 216 220 224 228 232 236 240 244 248 252 256 260 264 268 272 276 280 284 288 292 296 300 304 308 312 316 320 324 328 332 336 340 344 348 352 356 360 364 368 372 376 380 384 388 392 396 400 404 408 412 416 420 424 428 432 436 440 444 448 452 456 460 464 468 472 476 480 484 488 492 496 500 504 508 512 516 520 524 528 532 536 540 544 548 552 556 560 564 568 572 576 580 584 588 592 596 600 604 608 612 616 620 624 628 632 636 640 644 648 652 656 660 664 668 672 676 680 684 688 692 696 700 704 708 712 716 720 724 728 732 736 740 744 748 752 756 760 764 768 772 776 780 784 788 792 796 800 804 808 812 816 820 824 828 832 836 840 844 848 852 856 860 864 868 872 876 880 884 888 892 896 900 904 908 912 916 920 924 928 932 936 940 944 948 952 956 960 964 968 972 976 980 984 988 992 996 1000 1004 1008 1012 1016 1020 1024 1028 1032 1036 1040 1044 1048 1052 1056 1060 1064 1068 1072 1076 1080 1084 1088 1092 1096 1100 1104 1108 1112 1116 1120 1124 1128 1132 1136 1140 1144 1148 1152 1156 1160 1164 1168 1172 1176 1180 1184 1188 1192 1196 1200 1204 1208 1212 1216 1220 1224 1228 1232 1236 1240 1244 1248 1252 1256 1260 1264 1268 1272 1276 1280 1284 1288 1292 1296 1300 1304 1308 1312 1316 1320 1324 1328 1332 1336 1340 1344 1348 1352 1356 1360 1364 1368 1372 1376 1380 1384 1388 1392 1396 1400 1404 1408 1412 1416 1420 1424 1428 1432 1436 1440 1444 1448 1452 1456 1460 1464 1468 1472 1476 1480 1484 1488 1492 1496 1500 1504 1508 1512 1516 1520 1524 1528 1532 1536 1540 1544 1548 1552 1556 1560 1564 1568 1572 1576 1580 1584 1588 1592 1596 1600
        </DataArray>
        <DataArray type="Int32" Name="types" format="ascii">
          9 9 9 9 9 9 9 9 9 9 9 9 9 9 9 9 9 9 9 9 9 9 9 9 9 9 9 9 9 9 9 9 9 9 9 9 9 9 9 9 9 9 9 9 9 9 9 9 9 9 9 9 9 9 9 9 9 9 9 9 9 9 9 9 9 9 9 9 9 9 9 9 9 9 9 9 9 9 9 9 9 9 9 9 9 9 9 9 9 9 9 9 9 9 9 9 9 9 9 9 9 9 9 9 9 9 9 9 9 9 9 9 9 9 9 9 9 9 9 9 9 9 9 9 9 9 9 9 9 9 9 9 9 9 9 9 9 9 9 9 9 9 9 9 9 9 9 9 9 9 9 9 9 9 9 9 9 9 9 9 9 9 9 9 9 9 9 9 9 9 9 9 9 9 9 9 9 9 9 9 9 9 9 9 9 9 9 9 9 9 9 9 9 9 9 9 9 9 9 9 9 9 9 9 9 9 9 9 9 9 9 9 9 9 9 9 9 9 9 9 9 9 9 9 9 9 9 9 9 9 9 9 9 9 9 9 9 9 9 9 9 9 9 9 9 9 9 9 9 9 9 9 9 9 9 9 9 9 9 9 9 9 9 9 9 9 9 9 9 9 9 9 9 9 9 9 9 9 9 9 9 9 9 9 9 9 9 9 9 9 9 9 9 9 9 9 9 9 9 9 9 9 9 9 9 9 9 9 9 9 9 9 9 9 9 9 9 9 9 9 9 9 9 9 9 9 9 9 9 9 9 9 9 9 9 9 9 9 9 9 9 9 9 9 9 9 9 9 9 9 9 9 9 9 9 9 9 9 9 9 9 9 9 9 9 9 9 9 9 9 9 9 9 9 9 9 9 9 9 9 9 9 9 9 9 9 9 9 9 9 9 9 9 9 9 9 9 9 9 9
        </DataArray>
      </Cells>
      <CellData>
        <DataArray type="Float64" Name="velocity_magnitude" format="ascii">
          0.65619859388356 0.656343292245158 0.656305815752939 0.656478749405544 0.656518901118061 0.656697952034417 0.656813210794996 0.656995546126931 0.657168261776984 0.657362982360745 0.657572012610399 0.657787168873094 0.658018338217742 0.658254710028948 0.658501906345149 0.658755522360523 0.659016128960306 0.659282633805355 0.659554258592423 0.659830443611948 0.660110520924171 0.660393928130474 0.660680142237759 0.660968668714993 0.661259055492021 0.661550884017 0.661843766546315 0.662137345452848 0.662431290722697 0.662725297961285 0.663019086780037 0.663312399146407 0.663604997836366 0.663896665019917 0.664187200936283 0.664476422652298 0.664764162904708 0.665050269020304 0.665334601907486 0.665617035114487 0.665897453950092 0.666175754662732 0.666451843673978 0.666725636862779 0.666997058897124 0.66726604260998 0.667532528416571 0.667796463770245 0.668057802654388 0.668316505107997 0.668572536782682 0.668825868529025 0.669076476010341 0.669324339342042 0.669569442754885 0.669811774280562 0.670051325458053 0.670288091059597 0.670522068834368 0.670753259270201 0.670981665368351 0.67120729243982 0.671430147898731 0.671650241108912 0.671867583145824 0.672082186797659 0.67229406604567 0.67250323677354 0.672709714727752 0.672913519627085 0.673114665828157 0.673313181969172 0.673509069312735 0.673702387491484 0.673893080463591 0.674081322083532 0.674266842987754 0.674450213992184 0.674630450212757 0.674809386423854 0.674983862620535 0.675159366819634 0.67532675850794 0.675501068701841 0.675658317341389 0.675836021000882 0.675976997144573 0.676166533792495 0.67628048733899 0.676495510254283 0.676566298392542 0.676825191384328 0.676833991829053 0.677153646673074 0.677089943716195 0.677469298649386 0.677351675606865 0.677750036950315 0.677640692397099 0.677970926650817 1.40613014825834 1.4063168283622 1.40606129358694 1.40612173631876 1.40592660885207 1.40582575714848 1.40570358015235 1.40548115375689 1.4053768634225 1.40511183803525 1.40496438635268 1.40470804821999 1.40450200545616 1.404256109964 1.40401233068077 1.40376012692621 1.40349913690045 1.4032338285814 1.40296266860349 1.40268685708935 1.40240726190195 1.40212417379785 1.40183821534856 1.40154990907563 1.40125967350637 1.40096794114943 1.40067510972838 1.40038153542797 1.40008755212417 1.39979346923352 1.3994995700756 1.39920611568163 1.39891334661578 1.39862148368695 1.39833072935869 1.39804126917515 1.39775327285845 1.39746689534801 1.39718227783905 1.39689954873992 1.39661882454871 1.39634021067856 1.39606380223409 1.39578968473487 1.39551793479001 1.39524862072922 1.39498180319288 1.39471753568313 1.39445586507851 1.39419683211483 1.39394047183436 1.39368681400536 1.39343588351392 1.39318770072994 1.3929422818488 1.39269963921073 1.3924597815983 1.39222271451606 1.39198844044744 1.3917569591041 1.39152826763791 1.39130236088463 1.39107923149269 1.39085887025462 1.39064126597057 1.39042640625284 1.39021427635307 1.39000486199314 1.38979814409784 1.38959410961389 1.38939273072315 1.38919400522515 1.38899788017424 1.38880439492826 1.38861341825641 1.38842512408999 1.3882391464358 1.38805605315054 1.3878748271075 1.38769708112053 1.38752016417575 1.38734816312563 1.38717480991052 1.38700926467412 1.38683849113606 1.38668011947527 1.3865114199991 1.3863596266902 1.38619508096913 1.38604498900201 1.38589293677549 1.3857315772548 1.38560944948775 1.38541562864073 1.38534534117928 1.38510084417404 1.38509065744921 1.38480348696898 1.38482632369865 1.3845456162738 1.40613014825834 1.4063168283622 1.40606129358694 1.40612173631876 1.40592660885207 1.40582575714848 1.40570358015235 1.40548115375689 1.4053768634225 1.40511183803525 1.40496438635268 1.40470804822 1.40450200545616 1.404256109964 1.40401233068077 1.40376012692621 1.40349913690045 1.4032338285814 1.40296266860349 1.40268685708935 1.40240726190195 1.40212417379785 1.40183821534856 1.40154990907563 1.40125967350637 1.40096794114943 1.40067510972838 1.40038153542797 1.40008755212417 1.39979346923352 1.3994995700756 1.39920611568163 1.39891334661578 1.39862148368695 1.39833072935869 1.39804126917515 1.39775327285845 1.39746689534801 1.39718227783905 1.39689954873992 1.39661882454871 1.39634021067856 1.39606380223409 1.39578968473487 1.39551793479001 1.39524862072922 1.39498180319288 1.39471753568313 1.39445586507851 1.39419683211483 1.39394047183436 1.39368681400536 1.39343588351392 1.39318770072994 1.3929422818488 1.39269963921073 1.3924597815983 1.39222271451606 1.39198844044744 1.3917569591041 1.39152826763791 1.39130236088463 1.39107923149269 1.39085887025462 1.39064126597057 1.39042640625285 1.39021427635307 1.39000486199314 1.38979814409784 1.38959410961389 1.38939273072315 1.38919400522515 1.38899788017424 1.38880439492826 1.38861341825641 1.38842512408999 1.3882391464358 1.38805605315054 1.3878748271075 1.38769708112054 1.38752016417575 1.38734816312563 1.38717480991052 1.38700926467412 1.38683849113606 1.38668011947527 1.38651141999911 1.38635962669021 1.38619508096913 1.38604498900201 1.38589293677549 1.3857315772548 1.38560944948776 1.38541562864073 1.38534534117928 1.38510084417404 1.38509065744921 1.38480348696898 1.38482632369865 1.3845456162738 0.65619859388356 0.656343292245158 0.656305815752939 0.656478749405544 0.656518901118061 0.656697952034417 0.656813210794996 0.656995546126931 0.657168261776985 0.657362982360745 0.657572012610399 0.657787168873095 0.658018338217743 0.658254710028948 0.658501906345149 0.658755522360523 0.659016128960306 0.659282633805356 0.659554258592424 0.659830443611949 0.660110520924171 0.660393928130475 0.660680142237759 0.660968668714994 0.661259055492022 0.661550884017001 0.661843766546317 0.66213734545285 0.662431290722698 0.662725297961287 0.663019086780039 0.663312399146409 0.663604997836368 0.663896665019919 0.664187200936285 0.6644764226523 0.664764162904711 0.665050269020306 0.665334601907488 0.66561703511449 0.665897453950095 0.666175754662735 0.666451843673981 0.666725636862783 0.666997058897127 0.667266042609984 0.667532528416575 0.667796463770249 0.668057802654392 0.668316505108001 0.668572536782686 0.66882586852903 0.669076476010346 0.669324339342047 0.669569442754889 0.669811774280567 0.670051325458058 0.670288091059602 0.670522068834374 0.670753259270206 0.670981665368356 0.671207292439825 0.671430147898736 0.671650241108917 0.67186758314583 0.672082186797664 0.672294066045676 0.672503236773546 0.672709714727757 0.67291351962709 0.673114665828163 0.673313181969178 0.673509069312741 0.673702387491491 0.673893080463597 0.674081322083538 0.67426684298776 0.67445021399219 0.674630450212763 0.67480938642386 0.674983862620541 0.67515936681964 0.675326758507947 0.675501068701848 0.675658317341396 0.675836021000889 0.67597699714458 0.676166533792502 0.676280487338998 0.676495510254291 0.676566298392549 0.676825191384335 0.676833991829061 0.677153646673081 0.677089943716202 0.677469298649394 0.677351675606872 0.677750036950322 0.677640692397107 0.677970926650825
        </DataArray>
        <DataArray type="Float64" Name="pressure" format="ascii">
          0.19327967707943 0.19003236451337 0.189370514606296 0.186813089891699 0.185539940697343 0.183480297080507 0.181829354695601 0.180019698120509 0.178217130678961 0.176470922545312 0.174647838920564 0.172884706779511 0.171076596353318 0.169288367437361 0.16748690764544 0.165684917873152 0.163879265882471 0.162069424875405 0.16025614208058 0.15843888319793 0.156617661253994 0.154792446044671 0.152963141031139 0.151129708527105 0.149292110790778 0.147450311839243 0.14560428734533 0.14375401927568 0.141899495084107 0.140040708284353 0.138177657699724 0.136310346896958 0.134438783873574 0.132562980686168 0.130682953078147 0.128798720152631 0.126910304070554 0.125017729765704 0.123121024679409 0.121220218514973 0.119315343010062 0.11740643172539 0.115493519848813 0.113576644014033 0.11165584213291 0.109731153240422 0.107802617351439 0.105870275328534 0.103934168760093 0.101994339847992 0.100050831304196 0.0981036862556511 0.0961529481568953 0.0941986607098398 0.0922408677901995 0.0902796133801457 0.0883149415065824 0.0863468961850512 0.0843755213677689 0.082400860898292 0.0804229584651713 0.0784418575727824 0.0764576014825301 0.0744702332399708 0.0724797955021871 0.0704863308606009 0.0684898809849169 0.0664904885667252 0.0644881927332135 0.0624830394989882 0.0604750581249482 0.0584643135909795 0.0564507918962266 0.0544346464227538 0.0524156779180328 0.0503944122695382 0.0483699081079356 0.0463441314745772 0.044313397348854 0.0422847779741619 0.040245287964681 0.0382185492514333 0.0361627959250247 0.034150528895743 0.0320589107371264 0.0300917339782657 0.0279185401501595 0.0260637492345612 0.023713269861476 0.0221041729310763 0.0193964807630955 0.0182695678614964 0.0149046027352208 0.0146265283643439 0.0101782995029446 0.0112133684190642 0.00522051613539222 0.00796514834111225 0.000174079961355378 0.00465562737433939 0.20225985642231 0.198250780784283 0.196426960499432 0.194579398879383 0.191105674402057 0.190513019776583 0.186513204975329 0.185991557599416 0.182469546548429 0.181311451601446 0.178579888096037 0.176803247034638 0.174591829594043 0.172554301903092 0.170513069722107 0.168460937022355 0.166442405354558 0.164426128189236 0.162419817203901 0.160424532915696 0.158435967984564 0.156454673510101 0.154480024062845 0.152510853817171 0.150546658959879 0.148586863687368 0.14663082482129 0.144678018912671 0.142727963917163 0.140780192067405 0.138834276431341 0.136889826513761 0.134946478523566 0.133003895947308 0.131061769264232 0.129119813104856 0.127177764352028 0.125235380979285 0.123292440644432 0.121348739235966 0.119404089626777 0.117458320540625 0.115511275456086 0.113562811574661 0.111612798868323 0.109661119191807 0.107707665449569 0.105752340816807 0.103795058012976 0.101835738623539 0.0998743124661151 0.0979107169984079 0.0959448967653179 0.0939768028828529 0.092006392555784 0.0900336286281635 0.0880584791614252 0.0860809170455753 0.0841009196243518 0.0821184683720857 0.0801335485313257 0.078146148909996 0.0761562613917871 0.0741638811371463 0.0721690053418251 0.0701716351480635 0.0681717709014227 0.0661694214468102 0.0641645842748098 0.0621572856108921 0.0601474988373714 0.0581353068913579 0.0561205818380677 0.0541036072299097 0.0520838852392761 0.0500623882726716 0.0480373731673565 0.046012036974335 0.0439807489297567 0.0419533734574147 0.0399130969532308 0.0378881175050203 0.0358323128344229 0.0338194742881282 0.0317346699340358 0.0297520668350431 0.0276159312444676 0.0256889714382108 0.0234771594245714 0.021622029738302 0.0193389233327952 0.0175134969526925 0.015261487751711 0.0132791081673515 0.0113501118388393 0.00880524731012102 0.00770470719486861 0.00403740089820966 0.00430043762147733 -0.000898410312576359 0.202259856422304 0.19825078078428 0.196426960499428 0.194579398879381 0.191105674402055 0.190513019776582 0.186513204975328 0.185991557599414 0.182469546548429 0.181311451601444 0.178579888096037 0.176803247034635 0.174591829594042 0.17255430190309 0.170513069722108 0.168460937022354 0.166442405354558 0.164426128189235 0.162419817203901 0.160424532915695 0.158435967984564 0.156454673510101 0.154480024062846 0.152510853817171 0.150546658959879 0.148586863687369 0.146630824821291 0.144678018912672 0.142727963917164 0.140780192067407 0.138834276431344 0.136889826513763 0.134946478523568 0.133003895947311 0.131061769264235 0.129119813104859 0.12717776435203 0.125235380979288 0.123292440644434 0.12134873923597 0.119404089626778 0.117458320540626 0.115511275456087 0.113562811574661 0.111612798868323 0.109661119191807 0.107707665449569 0.105752340816808 0.103795058012978 0.10183573862354 0.0998743124661158 0.0979107169984085 0.0959448967653198 0.0939768028828543 0.0920063925557848 0.0900336286281636 0.0880584791614257 0.086080917045576 0.0841009196243518 0.0821184683720858 0.0801335485313249 0.0781461489099966 0.0761562613917865 0.0741638811371461 0.0721690053418233 0.0701716351480635 0.0681717709014214 0.0661694214468105 0.0641645842748075 0.0621572856108918 0.0601474988373697 0.0581353068913574 0.0561205818380649 0.0541036072299066 0.0520838852392725 0.0500623882726682 0.0480373731673523 0.046012036974331 0.0439807489297541 0.0419533734574125 0.03991309695323 0.0378881175050192 0.0358323128344223 0.0338194742881282 0.0317346699340362 0.0297520668350436 0.0276159312444683 0.0256889714382094 0.0234771594245716 0.0216220297383021 0.0193389233327957 0.0175134969526924 0.0152614877517105 0.013279108167351 0.0113501118388387 0.00880524731011882 0.00770470719486797 0.00403740089820798 0.00430043762147655 -0.000898410312576561 0.193279677079428 0.190032364513368 0.189370514606294 0.186813089891697 0.185539940697341 0.183480297080504 0.181829354695598 0.180019698120506 0.178217130678958 0.17647092254531 0.174647838920562 0.17288470677951 0.171076596353317 0.169288367437361 0.167486907645438 0.165684917873152 0.16387926588247 0.162069424875406 0.160256142080578 0.15843888319793 0.156617661253992 0.154792446044671 0.152963141031137 0.151129708527105 0.149292110790776 0.147450311839244 0.145604287345328 0.143754019275681 0.141899495084105 0.140040708284354 0.138177657699723 0.136310346896959 0.134438783873574 0.132562980686169 0.130682953078147 0.128798720152631 0.126910304070553 0.125017729765704 0.123121024679408 0.121220218514973 0.119315343010063 0.117406431725389 0.115493519848813 0.113576644014032 0.111655842132909 0.109731153240421 0.107802617351438 0.105870275328533 0.103934168760092 0.101994339847991 0.100050831304195 0.0981036862556497 0.0961529481568934 0.0941986607098382 0.0922408677901977 0.0902796133801433 0.0883149415065801 0.0863468961850484 0.0843755213677665 0.0824008608982896 0.0804229584651695 0.0784418575727802 0.0764576014825283 0.0744702332399689 0.0724797955021854 0.0704863308605985 0.0684898809849148 0.0664904885667234 0.0644881927332115 0.0624830394989864 0.0604750581249468 0.0584643135909783 0.0564507918962253 0.0544346464227527 0.0524156779180318 0.0503944122695373 0.0483699081079345 0.046344131474577 0.0443133973488544 0.0422847779741627 0.0402452879646815 0.0382185492514339 0.0361627959250253 0.0341505288957439 0.0320589107371268 0.0300917339782663 0.0279185401501596 0.0260637492345619 0.0237132698614762 0.022104172931077 0.0193964807630959 0.0182695678614971 0.0149046027352215 0.0146265283643447 0.0101782995029455 0.0112133684190646 0.0052205161353922 0.00796514834111211 0.000174079961355093 0.00465562737433939
        </DataArray>
        <DataArray type="Float64" Name="velocity" NumberOfComponents="3" format="ascii">