<?xml version="1.0"?>
<VTKFile type="UnstructuredGrid" version="0.1" byte_order="LittleEndian">
  <UnstructuredGrid>
    <Piece NumberOfPoints="189" NumberOfCells="160">
      <Points>
        <DataArray type="Float64" NumberOfComponents="3" format="ascii">
          0 0 0 0.01875 0 0 0.0375 0 0 0.05625 0 0 0.075 0 0 0.09375 0 0 0.1125 0 0 0.13125 0 0 0.15 0 0 0 0.0225 0 0.01875 0.0225 0 0.0375 0.0225 0 0.05625 0.0225 0 0.075 0.0225 0 0.09375 0.0225 0 0.1125 0.0225 0 0.13125 0.0225 0 0.15 0.0225 0 0 0.045 0 0.01875 0.045 0 0.0375 0.045 0 0.05625 0.045 0 0.075 0.045 0 0.09375 0.045 0 0.1125 0.045 0 0.13125 0.045 0 0.15 0.045 0 0 0.0675 0 0.01875 0.0675 0 0.0375 0.0675 0 0.05625 0.0675 0 0.075 0.0675 0 0.09375 0.0675 0 0.1125 0.0675 0 0.13125 0.0675 0 0.15 0.0675 0 0 0.09 0 0.01875 0.09 0 0.0375 0.09 0 0.05625 0.09 0 0.075 0.09 0 0.09375 0.09 0 0.1125 0.09 0 0.13125 0.09 0 0.15 0.09 0 0 0.1125 0 0.01875 0.1125 0 0.0375 0.1125 0 0.05625 0.1125 0 0.075 0.1125 0 0.09375 0.1125 0 0.1125 0.1125 0 0.13125 0.1125 0 0.15 0.1125 0 0 0.135 0 0.01875 0.135 0 0.0375 0.135 0 0.05625 0.135 0 0.075 0.135 0 0.09375 0.135 0 0.1125 0.135 0 0.13125 0.135 0 0.15 0.135 0 0 0.1575 0 0.01875 0.1575 0 0.0375 0.1575 0 0.05625 0.1575 0 0.075 0.1575 0 0.09375 0.1575 0 0.1125 0.1575 0 0.13125 0.1575 0 0.15 0.1575 0 0 0.18 0 0.01875 0.18 0 0.0375 0.18 0 0.05625 0.18 0 0.075 0.18 0 0.09375 0.18 0 0.1125 0.18 0 0.13125 0.18 0 0.15 0.18 0 0 0.2025 0 0.01875 0.2025 0 0.0375 0.2025 0 0.05625 0.2025 0 0.075 0.2025 0 0.09375 0.2025 0 0.1125 0.2025 0 0.13125 0.2025 0 0.15 0.2025 0 0 0.225 0 0.01875 0.225 0 0.0375 0.225 0 0.05625 0.225 0 0.075 0.225 0 0.09375 0.225 0 0.1125 0.225 0 0.13125 0.225 0 0.15 0.225 0 0 0.2475 0 0.01875 0.2475 0 0.0375 0.2475 0 0.05625 0.2475 0 0.075 0.2475 0 0.09375 0.2475 0 0.1125 0.2475 0 0.13125 0.2475 0 0.15 0.2475 0 0 0.27 0 0.01875 0.27 0 0.0375 0.27 0 0.05625 0.27 0 0.075 0.27 0 0.09375 0.27 0 0.1125 0.27 0 0.13125 0.27 0 0.15 0.27 0 0 0.2925 0 0.01875 0.2925 0 0.0375 0.2925 0 0.05625 0.2925 0 0.075 0.2925 0 0.09375 0.2925 0 0.1125 0.2925 0 0.13125 0.2925 0 0.15 0.2925 0 0 0.315 0 0.01875 0.315 0 0.0375 0.315 0 0.05625 0.315 0 0.075 0.315 0 0.09375 0.315 0 0.1125 0.315 0 0.13125 0.315 0 0.15 0.315 0 0 0.3375 0 0.01875 0.3375 0 0.0375 0.3375 0 0.05625 0.3375 0 0.075 0.3375 0 0.09375 0.3375 0 0.1125 0.3375 0 0.13125 0.3375 0 0.15 0.3375 0 0 0.36 0 0.01875 0.36 0 0.0375 0.36 0 0.05625 0.36 0 0.075 0.36 0 0.09375 0.36 0 0.1125 0.36 0 0.13125 0.36 0 0.15 0.36 0 0 0.3825 0 0.01875 0.3825 0 0.0375 0.3825 0 0.05625 0.3825 0 0.075 0.3825 0 0.09375 0.3825 0 0.1125 0.3825 0 0.13125 0.3825 0 0.15 0.3825 0 0 0.405 0 0.01875 0.405 0 0.0375 0.405 0 0.05625 0.405 0 0.075 0.405 0 0.09375 0.405 0 0.1125 0.405 0 0.13125 0.405 0 0.15 0.405 0 0 0.4275 0 0.01875 0.4275 0 0.0375 0.4275 0 0.05625 0.4275 0 0.075 0.4275 0 0.09375 0.4275 0 0.1125 0.4275 0 0.13125 0.4275 0 0.15 0.4275 0 0 0.45 0 0.01875 0.45 0 0.0375 0.45 0 0.05625 0.45 0 0.075 0.45 0 0.09375 0.45 0 0.1125 0.45 0 0.13125 0.45 0 0.15 0.45 0
        </DataArray>
      </Points>
      <Cells>
        <DataArray type="Int32" Name="connectivity" format="ascii">
          0 1 10 9 1 2 11 10 2 3 12 11 3 4 13 12 4 5 14 13 5 6 15 14 6 7 16 15 7 8 17 16 9 10 19 18 10 11 20 19 11 12 21 20 12 13 22 21 13 14 23 22 14 15 24 23 15 16 25 24 16 17 26 25 18 19 28 27 19 20 29 28 20 21 30 29 21 22 31 30 22 23 32 31 23 24 33 32 24 25 34 33 25 26 35 34 27 28 37 36 28 29 38 37 29 30 39 38 30 31 40 39 31 32 41 40 32 33 42 41 33 34 43 42 34 35 44 43 36 37 46 45 37 38 47 46 38 39 48 47 39 40 49 48 40 41 50 49 41 42 51 50 42 43 52 51 43 44 53 52 45 46 55 54 46 47 56 55 47 48 57 56 48 49 58 57 49 50 59 58 50 51 60 59 51 52 61 60 52 53 62 61 54 55 64 63 55 56 65 64 56 57 66 65 57 58 67 66 58 59 68 67 59 60 69 68 60 61 70 69 61 62 71 70 63 64 73 72 64 65 74 73 65 66 75 74 66 67 76 75 67 68 77 76 68 69 78 77 69 70 79 78 70 71 80 79 72 73 82 81 73 74 83 82 74 75 84 83 75 76 85 84 76 77 86 85 77 78 87 86 78 79 88 87 79 80 89 88 81 82 91 90 82 83 92 91 83 84 93 92 84 85 94 93 85 86 95 94 86 87 96 95 87 88 97 96 88 89 98 97 90 91 100 99 91 92 101 100 92 93 102 101 93 94 103 102 94 95 104 103 95 96 105 104 96 97 106 105 97 98 107 106 99 100 109 108 100 101 110 109 101 102 111 110 102 103 112 111 103 104 113 112 104 105 114 113 105 106 115 114 106 107 116 115 108 109 118 117 109 110 119 118 110 111 120 119 111 112 121 120 112 113 122 121 113 114 123 122 114 115 124 123 115 116 125 124 117 118 127 126 118 119 128 127 119 120 129 128 120 121 130 129 121 122 131 130 122 123 132 131 123 124 133 132 124 125 134 133 126 127 136 135 127 128 137 136 128 129 138 137 129 130 139 138 130 131 140 139 131 132 141 140 132 133 142 141 133 134 143 142 135 136 145 144 136 137 146 145 137 138 147 146 138 139 148 147 139 140 149 148 140 141 150 149 141 142 151 150 142 143 152 151 144 145 154 153 145 146 155 154 146 147 156 155 147 148 157 156 148 149 158 157 149 150 159 158 150 151 160 159 151 152 161 160 153 154 163 162 154 155 164 163 155 156 165 164 156 157 166 165 157 158 167 166 158 159 168 167 159 160 169 168 160 161 170 169 162 163 172 171 163 164 173 172 164 165 174 173 165 166 175 174 166 167 176 175 167 168 177 176 168 169 178 177 169 170 179 178 171 172 181 180 172 173 182 181 173 174 183 182 174 175 184 183 175 176 185 184 176 177 186 185 177 178 187 186 178 179 188 187
        </DataArray>
        <DataArray type="Int32" Name="offsets" format="ascii">
          4 8 12 16 20 24 28 32 36 40 44 48 52 56 60 64 68 72 76 80 84 88 92 96 100 104 108 112 116 120 124 128 132 136 140 144 148 152 156 160 164 168 172 176 180 184 188 192 196 200 204 208 212 216 220 224 228 232 236 240 244 248 252 256 260 264 268 272 276 280 284 288 292 296 300 304 308 312 316 320 324 328 332 336 340 344 348 352 356 360 364 368 372 376 380 384 388 392 396 400 404 408 412 416 420 424 428 432 436 440 444 448 452 456 460 464 468 472 476 480 484 488 492 496 500 504 508 512 516 520 524 528 532 536 540 544 548 552 556 560 564 568 572 576 580 584 588 592 596 600 604 608 612 616 620 624 628 632 636 640
        </DataArray>
        <DataArray type="Int32" Name="types" format="ascii">
          9 9 9 9 9 9 9 9 9 9 9 9 9 9 9 9 9 9 9 9 9 9 9 9 9 9 9 9 9 9 9 9 9 9 9 9 9 9 9 9 9 9 9 9 9 9 9 9 9 9 9 9 9 9 9 9 9 9 9 9 9 9 9 9 9 9 9 9 9 9 9 9 9 9 9 9 9 9 9 9 9 9 9 9 9 9 9 9 9 9 9 9 9 9 9 9 9 9 9 9 9 9 9 9 9 9 9 9 9 9 9 9 9 9 9 9 9 9 9 9 9 9 9 9 9 9 9 9 9 9 9 9 9 9 9 9 9 9 9 9 9 9 9 9 9 9 9 9 9 9 9 9 9 9 9 9 9 9 9 9
        </DataArray>
      </Cells>
      <CellData>
        <DataArray type="Float64" Name="alpha_liquid" format="ascii">
          0.999999999994776 1 1 0.927750874102483 1 1 1 1 0.999999999994776 0.373900409397209 1 0.306968413632439 1 0.999999998262309 0.999999999922555 1 0.999999706716052 0.999999821673853 0.999999842269915 0.01 1 0.999999999999999 0.999999868913914 1 0.95007129340898 0.01 0.01 1 1 0.453315334006201 0.999999877453239 1 0.99450145318438 0.98959446551286 1 1 0.01 0.999999824469317 0.999999999999974 0.999999999999986 0.01 0.904510308725273 0.999999999983436 0.566899275096864 1 0.999999931864218 0.435789089322986 0.999999999999994 0.999999999988934 0.975020308862675 0.01 0.999999860939093 1 0.901388263509119 0.999999818841895 0.999999999999996 0.999999999994782 0.998506161203153 0.999999870414523 0.99999999999994 0.999999999999996 0.999999962005702 1 1 0.998900196060256 0.999263437956653 0.999988244250501 0.0595324964696998 0.999999999999995 0.999999968340205 0.999999968347352 0.999999968365537 0.01 0.01 0.999929901886265 0.77759139301618 1 0.999470297400535 0.974106101096397 0.999999999999995 0.641890619781814 0.833605865366714 0.999999999979565 0.987487595710196 0.981939553237312 1 0.999999994403042 0.999999997082833 0.597287367448443 0.847751119334482 0.01 0.01 0.984078205274377 0.979983288154199 0.742809048447112 0.999999997681508 0.254398652208878 0.01 0.998857290423693 0.998926179252995 0.999999994644211 0.978754688033612 0.966679288928128 0.99453826584128 0.601107307653427 0.01 0.999868334865495 0.990140072156459 1 0.980862337444666 0.980403259342664 0.990749442453242 0.520450317855533 0.883523497724417 1 0.423131351680758 1 0.994488366598455 0.97939105070945 0.975136978805845 0.975967820837562 0.982278317755328 0.8664570532783 0.912115880155203 1 0.999992824004398 0.939913721699059 0.999999983085353 0.966816846679468 0.959661275574721 0.70057800092982 0.985703666553444 0.01 0.01 0.99999999999155 0.999999999999748 0.01 0.499895702912394 0.01 0.999636966726623 0.429012435572507 0.01 0.999999999662829 0.999999999826248 0.999999999988905 0.999999951828718 0.997777655122087 0.99999525002195 0.948530187592296 0.306994508437489 0.999999999999999 1 0.999999999994776 0.999999999999994 0.999653307613596 0.99999999999927 0.99848738345766 0.997916433912666 1 1
        </DataArray>
        <DataArray type="Float64" Name="alpha_gas" format="ascii">
          5.22448979537246e-12 1e-20 1e-20 0.0722491258975168 1e-20 1e-20 1e-20 1e-20 5.22448979537246e-12 0.626099590602791 1e-20 0.693031586367561 1e-20 1.73769083980949e-09 7.74450717569521e-11 1e-20 2.93283948268723e-07 1.78326147053939e-07 1.57730085294402e-07 0.99 2.33960341227668e-20 6.69529793317401e-16 1.31086085750215e-07 1e-20 0.0499287065910197 0.99 0.99 1e-20 1e-20 0.546684665993799 1.22546760507936e-07 2.65994529455575e-16 0.00549854681562037 0.0104055344871403 3.02298488172492e-18 1e-20 0.99 1.7553068284447e-07 2.57625004939947e-14 1.44432141821518e-14 0.99 0.0954896912747267 1.65641618036241e-11 0.433100724903136 1e-20 6.81357824292995e-08 0.564210910677014 5.8317251924958e-15 1.10658402182352e-11 0.0249796911373248 0.99 1.39060907445146e-07 1e-20 0.0986117364908806 1.81158104656188e-07 3.63447964810771e-15 5.21796982551708e-12 0.00149383879684647 1.29585476862075e-07 6.01874036221765e-14 3.91608376057488e-15 3.79942984873394e-08 1e-20 1e-20 0.00109980393974426 0.000736562043346545 1.17557494988833e-05 0.9404675035303 5.04841372892359e-15 3.16597955056392e-08 3.16526476740259e-08 3.1634463043708e-08 0.99 0.99 7.0098113734997e-05 0.22240860698382 1e-20 0.000529702599464918 0.0258938989036026 5.07388959834529e-15 0.358109380218186 0.166394134633286 2.04351831790302e-11 0.0125124042898043 0.0180604467626884 1e-20 5.59695836266452e-09 2.9171666215685e-09 0.402712632551557 0.152248880665518 0.99 0.99 0.0159217947256232 0.0200167118458006 0.257190951552888 2.31849225527801e-09 0.745601347791122 0.99 0.00114270957630662 0.00107382074700457 5.35578868906135e-09 0.021245311966388 0.0333207110718717 0.00546173415872024 0.398892692346573 0.99 0.000131665134504882 0.00985992784354063 1e-20 0.0191376625553337 0.0195967406573355 0.00925055754675828 0.479549682144467 0.116476502275583 1e-20 0.576868648319242 1e-20 0.00551163340154537 0.0206089492905504 0.0248630211941548 0.024032179162438 0.0177216822446716 0.1335429467217 0.0878841198447972 1e-20 7.17599560214874e-06 0.0600862783009413 1.69146474806909e-08 0.0331831533205317 0.0403387244252788 0.29942199907018 0.0142963334465555 0.99 0.99 8.44978512383455e-12 2.52318124178876e-13 0.99 0.500104297087606 0.99 0.00036303327337707 0.570987564427493 0.99 3.37170541075539e-10 1.73752286425145e-10 1.10948068840223e-11 4.81712814719504e-08 0.00222234487791304 4.74997805009353e-06 0.0514698124077037 0.693005491562511 7.22245251187225e-16 1.59819897460372e-16 5.22449210915687e-12 5.56795801261974e-15 0.000346692386403608 7.29533082744891e-13 0.00151261654234005 0.00208356608733394 1.24493864948907e-18 1e-20
        </DataArray>
        <DataArray type="Float64" Name="pressure" format="ascii">
          4774536891.17998 2.43548955014214e+15 -2.1092826698449e+15 4.54187750768025e+15 -3.48409479812384e+15 8.52837789242473e+15 -1.96097813546947e+15 -1.96669293303083e+15 138999940910813 -6.92684340514869e+15 7.74627046597573e+15 7.52908532367342e+15 3.71992201883037e+15 5.89832252482757e+15 -3.68606975024303e+15 -4.34367093729658e+15 -1.80918701971803e+15 6.62743505555054e+15 8.18006475515288e+15 2.50264451178253e+15 -9.6002846284667e+15 9.60957684565803e+15 483028541931784 -806887764183019 -1.85599415306365e+16 917919620376252 4.52782803398602e+15 8.28510166767133e+15 1.1762498658137e+16 8.76633737344295e+15 -4.67857663387706e+15 -2.48234486673524e+15 -6.69371657221263e+15 -5.64341719948526e+15 -2.92111702939109e+16 2.31540277736332e+16 2.02135352144302e+15 -1.39715396401793e+16 5.05799060193308e+15 1.27655754785621e+15 -2.27576128494236e+16 4.92516131441203e+15 7.53545451373609e+15 1.83684195867156e+16 4.27716700679553e+15 7.36790591071551e+15 -716116788410654 5.15924344328631e+15 -5.85917403106092e+15 123306122315222 -5.00034742607631e+15 -1.52129447748364e+16 1.10593892258093e+16 -1.00779565758893e+15 -4.98540028813938e+15 3.81556987772357e+15 3.21703224832557e+15 4.73481597941653e+15 1.65202113560832e+15 2.45971560808552e+15 -223533414269846 1.27695008554485e+16 6.27506782212697e+15 51605333776826.3 -1.62024948854037e+15 676881205757874 7.2771295473813e+15 -9.04524787294666e+15 -6.12287222061434e+16 -1.02341484087432e+16 1.5868366788685e+16 5.74635485272607e+15 -9.50054505948051e+15 -1.33537120081306e+16 -2.95374605449377e+16 -3.04222101886915e+16 -6.44690461126811e+16 -2.7605933776755e+16 -6.89499628271452e+16 -3.53453009275113e+16 -4.28484117428553e+16 -5.44578287288793e+16 -3.4264170673709e+16 -2.24428138739897e+16 -3.51083369349773e+16 -8.57434529739723e+16 -3.49624860526995e+16 -2.06115568151205e+16 -4.8614418922246e+16 -4.80842675621183e+16 -5.22374767507881e+16 -8.40550644738137e+16 -4.78589914415881e+16 -2.44649146499227e+16 -2.73734842621532e+16 -6.60031866874732e+15 -5.70594144750525e+16 -6.47451713557961e+16 -3.34779801223577e+16 -9.92710682405116e+16 -6.74015422664817e+16 -1.98322789113532e+16 -4.20913364156742e+16 -1.55885509201612e+16 -6.16241674818375e+16 -5.74681579488988e+16 -8.54631886019351e+16 -8.53475688148227e+16 -9.43024911700667e+16 -4.09382217587633e+16 -2.01120476604722e+16 -1.09204554789256e+16 -9.54595898962309e+16 -9.80545964143975e+16 -8.50172749616623e+16 -1.04491896104719e+17 -7.32694085514686e+16 -6.86588167292873e+16 -1.67555903232321e+16 1.46498498212807e+16 -6.21971889620992e+16 -6.10883256315346e+16 -6.97402746624635e+16 -5.5161668018111e+16 -4.80401667949697e+16 -3.10226163622338e+16 -4.86100839589996e+16 -2.3344043784808e+16 -6.27627351134456e+16 -5.40461624881099e+16 -5.93134230751902e+16 -5.64896195925851e+16 -6.24130921175534e+16 -8.71107268687225e+16 -4.46368733263084e+16 -2.3461165552055e+16 -6.51877783368962e+16 -4.9285806143537e+16 -3.87374291618698e+16 -4.97985435362005e+16 -1.28325800572369e+16 -5.62717457594249e+16 -3.92651218326744e+16 -2.00730608123196e+16 -6.68096642910639e+16 -6.14131829546211e+16 -6.77658694531356e+16 -9.44260186476317e+16 -6.11843886401924e+16 -8.99681315425503e+16 -8.02305351135713e+16 -4.98449557077359e+16 -2.87327565699088e+16 -2.84832418143911e+16 -4.74707604306938e+16 -4.60539236275313e+16 -1.27058190039112e+16 1.054775378775e+16 -3.4610369900705e+16 -2.62266305293475e+16
        </DataArray>
        <DataArray type="Float64" Name="velocity_gas" NumberOfComponents="3" format="ascii">
          -1000000 -999999.61470277 0 1000000 1000000.38529723 0 -1000000 -999999.61470277 0 1000000 -584309.891842207 0 -1000000 -999999.61470277 0 1000000 1000000.38529723 0 -1000000 1000000.38529723 0 -994610.92578399 993885.64990513 0 1000000 1000000.38529723 0 -1000000 -999999.61470277 0 1000000 1000000.38529723 0 1000000 1000000.38529723 0 -1000000 1000000.38529723 0 1000000 -999999.61470277 0 -1000000 -999999.61470277 0 -1000000 -999999.61470277 0 -1000000 1000000.38529723 0 1000000 1000000.38529723 0 1000000 1000000.38529723 0 1000000 -999999.61470277 0 -1000000 -999999.61470277 0 1000000 1000000.38529723 0 -1000000 1000000.38529723 0 -1000000 1000000.38529723 0 -1000000 -999999.61470277 0 1000000 -698244.515357369 0 -1000000 -695730.272940225 0 -1000000 -999999.61470277 0 1000000 1000000.38529723 0 1000000 1000000.38529723 0 -1000000 -999999.61470277 0 -169767.901241055 -999999.61470277 0 -1000000 1000000.38529723 0 1000000 -999999.61470277 0 -1000000 -999999.61470277 0 1000000 1000000.38529723 0 -1000000 -999999.61470277 0 -1000000 -999999.61470277 0 1000000 1000000.38529723 0 979105.38221315 1000000.38529723 0 -1000000 44232.3312196964 0 1000000 1000000.38529723 0 -1000000 1000000.38529723 0 1000000 1000000.38529723 0 -1000000 -999999.61470277 0 1000000 1000000.38529723 0 -1000000 1000000.38529723 0 1000000 1000000.38529723 0 -1000000 -999999.61470277 0 1000000 -999999.61470277 0 -1000000 -999999.61470277 0 -1000000 -999999.61470277 0 1000000 1000000.38529723 0 -1000000 -999999.61470277 0 -1000000 -999999.61470277 0 1000000 1000000.38529723 0 -1000000 1000000.38529723 0 1000000 1000000.38529723 0 -1000000 -999999.61470277 0 1000000 1000000.38529723 0 -1000000 1000000.38529723 0 1000000 1000000.38529723 0 -1000000 -629781.223767541 0 -1000000 -999999.61470277 0 -1000000 1000000.38529723 0 -1000000 1000000.38529723 0 1000000 1000000.38529723 0 1000000 538926.766687727 0 -1000000 -999999.61470277 0 1000000 1000000.38529723 0 1000000 1000000.38529723 0 1000000 1000000.38529723 0 -1000000 297509.445632798 0 1000000 66182.5960717696 0 -1000000 -999999.61470277 0 1000000 -538937.142191496 0 -1000000 -999999.61470277 0 1000000 -999999.61470277 0 -1000000 -999999.61470277 0 -1000000 -999999.61470277 0 1000000 -999999.61470277 0 -1000000 -999999.61470277 0 1000000 1000000.38529723 0 1000000 1000000.38529723 0 1000000 1000000.38529723 0 -1000000 -999999.61470277 0 1000000 1000000.38529723 0 -96952.51771258 1000000.38529723 0 1000000 571972.630612434 0 -1000000 1000000.38529723 0 1000000 -953833.866606434 0 -1000000 -954323.163431539 0 1000000 1000000.38529723 0 1000000 1000000.38529723 0 -1000000 1000000.38529723 0 1000000 1000000.38529723 0 1000000 -754319.400460967 0 -1000000 -383149.903364609 0 1000000 746768.23481735 0 -1000000 -999999.61470277 0 -1000000 -999999.61470277 0 1000000 1000000.38529723 0 -1000000 -999999.61470277 0 1000000 -999999.61470277 0 -1000000 1000000.38529723 0 1000000 -135294.060990217 0 -1000000 -999999.61470277 0 1000000 546069.859759348 0 -1000000 -999999.61470277 0 1000000 1000000.38529723 0 1000000 1000000.38529723 0 707840.141746874 -999999.61470277 0 1000000 -999999.61470277 0 -1000000 -999999.61470277 0 1000000 -999999.61470277 0 -1000000 -568021.776272632 0 1000000 -999999.61470277 0 -1000000 -999999.61470277 0 1000000 1000000.38529723 0 1000000 1000000.38529723 0 -238268.586197539 1000000.38529723 0 1000000 1000000.38529723 0 -1000000 1000000.38529723 0 310973.161869823 1000000.38529723 0 -1000000 1000000.38529723 0 1000000 1000000.38529723 0 -1000000 -999999.61470277 0 191823.019419546 -999999.61470277 0 -1000000 1000000.38529723 0 1000000 1000000.38529723 0 -1000000 1000000.38529723 0 -1000000 -999999.61470277 0 1000000 -518864.4442909 0 -1000000 -693117.169777026 0 1000000 -999999.61470277 0 -1000000 -999999.61470277 0 -1000000 26578.9105491176 0 1000000 1000000.38529723 0 1000000 1000000.38529723 0 -1000000 1000000.38529723 0 1000000 -12999.3003420993 0 -1000000 471234.404579607 0 -1000000 1000000.38529723 0 -583707.39904469 1000000.38529723 0 -1000000 -999999.61470277 0 1000000 -999999.61470277 0 1000000 -999999.61470277 0 -1000000 -999999.61470277 0 1000000 -999999.61470277 0 -1000000 -999999.61470277 0 -1000000 -999999.61470277 0 -1000000 -999999.61470277 0 -1000000 1000000.38529723 0 1000000 1000000.38529723 0 -1000000 821630.328427779 0 -1000000 1000000.38529723 0 1000000 1000000.38529723 0 1000000 725305.11624743 0 -1000000 1000000.38529723 0 -1000000 1000000.38529723 0
        </DataArray>
        <DataArray type="Float64" Name="velocity_liquid" NumberOfComponents="3" format="ascii">
          -1000000 -1000000 0 1000000 1000000 0 -1000000 -1000000 0 1000000 -584310.277139438 0 -1000000 -1000000 0 1000000 1000000 0 -1000000 1000000 0 -994610.92578399 993885.264607899 0 1000000 1000000 0 -1000000 -1000000 0 1000000 1000000 0 1000000 1000000 0 -1000000 1000000 0 1000000 -1000000 0 -1000000 -1000000 0 -1000000 -1000000 0 -1000000 1000000 0 1000000 1000000 0 1000000 1000000 0 1000000 -1000000 0 -1000000 -1000000 0 1000000 1000000 0 -1000000 1000000 0 -1000000 1000000 0 -1000000 -1000000 0 1000000 -698244.9006546 0 -1000000 -695730.658237456 0 -1000000 -1000000 0 1000000 1000000 0 1000000 1000000 0 -1000000 -1000000 0 -169767.901241055 -1000000 0 -1000000 1000000 0 1000000 -1000000 0 -1000000 -1000000 0 1000000 1000000 0 -1000000 -1000000 0 -1000000 -1000000 0 1000000 1000000 0 979105.38221315 1000000 0 -1000000 44231.945922466 0 1000000 1000000 0 -1000000 1000000 0 1000000 1000000 0 -1000000 -1000000 0 1000000 1000000 0 -1000000 1000000 0 1000000 1000000 0 -1000000 -1000000 0 1000000 -1000000 0 -1000000 -1000000 0 -1000000 -1000000 0 1000000 1000000 0 -1000000 -1000000 0 -1000000 -1000000 0 1000000 1000000 0 -1000000 1000000 0 1000000 1000000 0 -1000000 -1000000 0 1000000 1000000 0 -1000000 1000000 0 1000000 1000000 0 -1000000 -629781.609064771 0 -1000000 -1000000 0 -1000000 1000000 0 -1000000 1000000 0 1000000 1000000 0 1000000 538926.381390497 0 -1000000 -1000000 0 1000000 1000000 0 1000000 1000000 0 1000000 1000000 0 -1000000 297509.060335567 0 1000000 66182.2107745392 0 -1000000 -1000000 0 1000000 -538937.527488726 0 -1000000 -1000000 0 1000000 -1000000 0 -1000000 -1000000 0 -1000000 -1000000 0 1000000 -1000000 0 -1000000 -1000000 0 1000000 1000000 0 1000000 1000000 0 1000000 1000000 0 -1000000 -1000000 0 1000000 1000000 0 -96952.51771258 1000000 0 1000000 571972.245315203 0 -1000000 1000000 0 1000000 -953834.251903664 0 -1000000 -954323.548728769 0 1000000 1000000 0 1000000 1000000 0 -1000000 1000000 0 1000000 1000000 0 1000000 -754319.785758198 0 -1000000 -383150.288661839 0 1000000 746767.84952012 0 -1000000 -1000000 0 -1000000 -1000000 0 1000000 1000000 0 -1000000 -1000000 0 1000000 -1000000 0 -1000000 1000000 0 1000000 -135294.446287447 0 -1000000 -1000000 0 1000000 546069.474462118 0 -1000000 -1000000 0 1000000 1000000 0 1000000 1000000 0 707840.141746874 -1000000 0 1000000 -1000000 0 -1000000 -1000000 0 1000000 -1000000 0 -1000000 -568022.161569862 0 1000000 -1000000 0 -1000000 -1000000 0 1000000 1000000 0 1000000 1000000 0 -238268.586197539 1000000 0 1000000 1000000 0 -1000000 1000000 0 310973.161869823 1000000 0 -1000000 1000000 0 1000000 1000000 0 -1000000 -1000000 0 191823.019419546 -1000000 0 -1000000 1000000 0 1000000 1000000 0 -1000000 1000000 0 -1000000 -1000000 0 1000000 -518864.82958813 0 -1000000 -693117.555074256 0 1000000 -1000000 0 -1000000 -1000000 0 -1000000 26578.5252518872 0 1000000 1000000 0 1000000 1000000 0 -1000000 1000000 0 1000000 -12999.6856393297 0 -1000000 471234.019282377 0 -1000000 1000000 0 -583707.39904469 1000000 0 -1000000 -1000000 0 1000000 -1000000 0 1000000 -1000000 0 -1000000 -1000000 0 1000000 -1000000 0 -1000000 -1000000 0 -1000000 -1000000 0 -1000000 -1000000 0 -1000000 1000000 0 1000000 1000000 0 -1000000 821629.943130549 0 -1000000 1000000 0 1000000 1000000 0 1000000 725304.730950199 0 -1000000 1000000 0 -1000000 1000000 0
        </DataArray>
      </CellData>
    </Piece>
  </UnstructuredGrid>
</VTKFile>
