<?xml version="1.0"?>
<VTKFile type="UnstructuredGrid" version="0.1" byte_order="LittleEndian">
  <UnstructuredGrid>
    <Piece NumberOfPoints="1089" NumberOfCells="1024">
      <Points>
        <DataArray type="Float64" NumberOfComponents="3" format="ascii">
          0 0 0 0.03125 0 0 0.0625 0 0 0.09375 0 0 0.125 0 0 0.15625 0 0 0.1875 0 0 0.21875 0 0 0.25 0 0 0.28125 0 0 0.3125 0 0 0.34375 0 0 0.375 0 0 0.40625 0 0 0.4375 0 0 0.46875 0 0 0.5 0 0 0.53125 0 0 0.5625 0 0 0.59375 0 0 0.625 0 0 0.65625 0 0 0.6875 0 0 0.71875 0 0 0.75 0 0 0.78125 0 0 0.8125 0 0 0.84375 0 0 0.875 0 0 0.90625 0 0 0.9375 0 0 0.96875 0 0 1 0 0 0 0.03125 0 0.03125 0.03125 0 0.0625 0.03125 0 0.09375 0.03125 0 0.125 0.03125 0 0.15625 0.03125 0 0.1875 0.03125 0 0.21875 0.03125 0 0.25 0.03125 0 0.28125 0.03125 0 0.3125 0.03125 0 0.34375 0.03125 0 0.375 0.03125 0 0.40625 0.03125 0 0.4375 0.03125 0 0.46875 0.03125 0 0.5 0.03125 0 0.53125 0.03125 0 0.5625 0.03125 0 0.59375 0.03125 0 0.625 0.03125 0 0.65625 0.03125 0 0.6875 0.03125 0 0.71875 0.03125 0 0.75 0.03125 0 0.78125 0.03125 0 0.8125 0.03125 0 0.84375 0.03125 0 0.875 0.03125 0 0.90625 0.03125 0 0.9375 0.03125 0 0.96875 0.03125 0 1 0.03125 0 0 0.0625 0 0.03125 0.0625 0 0.0625 0.0625 0 0.09375 0.0625 0 0.125 0.0625 0 0.15625 0.0625 0 0.1875 0.0625 0 0.21875 0.0625 0 0.25 0.0625 0 0.28125 0.0625 0 0.3125 0.0625 0 0.34375 0.0625 0 0.375 0.0625 0 0.40625 0.0625 0 0.4375 0.0625 0 0.46875 0.0625 0 0.5 0.0625 0 0.53125 0.0625 0 0.5625 0.0625 0 0.59375 0.0625 0 0.625 0.0625 0 0.65625 0.0625 0 0.6875 0.0625 0 0.71875 0.0625 0 0.75 0.0625 0 0.78125 0.0625 0 0.8125 0.0625 0 0.84375 0.0625 0 0.875 0.0625 0 0.90625 0.0625 0 0.9375 0.0625 0 0.96875 0.0625 0 1 0.0625 0 0 0.09375 0 0.03125 0.09375 0 0.0625 0.09375 0 0.09375 0.09375 0 0.125 0.09375 0 0.15625 0.09375 0 0.1875 0.09375 0 0.21875 0.09375 0 0.25 0.09375 0 0.28125 0.09375 0 0.3125 0.09375 0 0.34375 0.09375 0 0.375 0.09375 0 0.40625 0.09375 0 0.4375 0.09375 0 0.46875 0.09375 0 0.5 0.09375 0 0.53125 0.09375 0 0.5625 0.09375 0 0.59375 0.09375 0 0.625 0.09375 0 0.65625 0.09375 0 0.6875 0.09375 0 0.71875 0.09375 0 0.75 0.09375 0 0.78125 0.09375 0 0.8125 0.09375 0 0.84375 0.09375 0 0.875 0.09375 0 0.90625 0.09375 0 0.9375 0.09375 0 0.96875 0.09375 0 1 0.09375 0 0 0.125 0 0.03125 0.125 0 0.0625 0.125 0 0.09375 0.125 0 0.125 0.125 0 0.15625 0.125 0 0.1875 0.125 0 0.21875 0.125 0 0.25 0.125 0 0.28125 0.125 0 0.3125 0.125 0 0.34375 0.125 0 0.375 0.125 0 0.40625 0.125 0 0.4375 0.125 0 0.46875 0.125 0 0.5 0.125 0 0.53125 0.125 0 0.5625 0.125 0 0.59375 0.125 0 0.625 0.125 0 0.65625 0.125 0 0.6875 0.125 0 0.71875 0.125 0 0.75 0.125 0 0.78125 0.125 0 0.8125 0.125 0 0.84375 0.125 0 0.875 0.125 0 0.90625 0.125 0 0.9375 0.125 0 0.96875 0.125 0 1 0.125 0 0 0.15625 0 0.03125 0.15625 0 0.0625 0.15625 0 0.09375 0.15625 0 0.125 0.15625 0 0.15625 0.15625 0 0.1875 0.15625 0 0.21875 0.15625 0 0.25 0.15625 0 0.28125 0.15625 0 0.3125 0.15625 0 0.34375 0.15625 0 0.375 0.15625 0 0.40625 0.15625 0 0.4375 0.15625 0 0.46875 0.15625 0 0.5 0.15625 0 0.53125 0.15625 0 0.5625 0.15625 0 0.59375 0.15625 0 0.625 0.15625 0 0.65625 0.15625 0 0.6875 0.15625 0 0.71875 0.15625 0 0.75 0.15625 0 0.78125 0.15625 0 0.8125 0.15625 0 0.84375 0.15625 0 0.875 0.15625 0 0.90625 0.15625 0 0.9375 0.15625 0 0.96875 0.15625 0 1 0.15625 0 0 0.1875 0 0.03125 0.1875 0 0.0625 0.1875 0 0.09375 0.1875 0 0.125 0.1875 0 0.15625 0.1875 0 0.1875 0.1875 0 0.21875 0.1875 0 0.25 0.1875 0 0.28125 0.1875 0 0.3125 0.1875 0 0.34375 0.1875 0 0.375 0.1875 0 0.40625 0.1875 0 0.4375 0.1875 0 0.46875 0.1875 0 0.5 0.1875 0 0.53125 0.1875 0 0.5625 0.1875 0 0.59375 0.1875 0 0.625 0.1875 0 0.65625 0.1875 0 0.6875 0.1875 0 0.71875 0.1875 0 0.75 0.1875 0 0.78125 0.1875 0 0.8125 0.1875 0 0.84375 0.1875 0 0.875 0.1875 0 0.90625 0.1875 0 0.9375 0.1875 0 0.96875 0.1875 0 1 0.1875 0 0 0.21875 0 0.03125 0.21875 0 0.0625 0.21875 0 0.09375 0.21875 0 0.125 0.21875 0 0.15625 0.21875 0 0.1875 0.21875 0 0.21875 0.21875 0 0.25 0.21875 0 0.28125 0.21875 0 0.3125 0.21875 0 0.34375 0.21875 0 0.375 0.21875 0 0.40625 0.21875 0 0.4375 0.21875 0 0.46875 0.21875 0 0.5 0.21875 0 0.53125 0.21875 0 0.5625 0.21875 0 0.59375 0.21875 0 0.625 0.21875 0 0.65625 0.21875 0 0.6875 0.21875 0 0.71875 0.21875 0 0.75 0.21875 0 0.78125 0.21875 0 0.8125 0.21875 0 0.84375 0.21875 0 0.875 0.21875 0 0.90625 0.21875 0 0.9375 0.21875 0 0.96875 0.21875 0 1 0.21875 0 0 0.25 0 0.03125 0.25 0 0.0625 0.25 0 0.09375 0.25 0 0.125 0.25 0 0.15625 0.25 0 0.1875 0.25 0 0.21875 0.25 0 0.25 0.25 0 0.28125 0.25 0 0.3125 0.25 0 0.34375 0.25 0 0.375 0.25 0 0.40625 0.25 0 0.4375 0.25 0 0.46875 0.25 0 0.5 0.25 0 0.53125 0.25 0 0.5625 0.25 0 0.59375 0.25 0 0.625 0.25 0 0.65625 0.25 0 0.6875 0.25 0 0.71875 0.25 0 0.75 0.25 0 0.78125 0.25 0 0.8125 0.25 0 0.84375 0.25 0 0.875 0.25 0 0.90625 0.25 0 0.9375 0.25 0 0.96875 0.25 0 1 0.25 0 0 0.28125 0 0.03125 0.28125 0 0.0625 0.28125 0 0.09375 0.28125 0 0.125 0.28125 0 0.15625 0.28125 0 0.1875 0.28125 0 0.21875 0.28125 0 0.25 0.28125 0 0.28125 0.28125 0 0.3125 0.28125 0 0.34375 0.28125 0 0.375 0.28125 0 0.40625 0.28125 0 0.4375 0.28125 0 0.46875 0.28125 0 0.5 0.28125 0 0.53125 0.28125 0 0.5625 0.28125 0 0.59375 0.28125 0 0.625 0.28125 0 0.65625 0.28125 0 0.6875 0.28125 0 0.71875 0.28125 0 0.75 0.28125 0 0.78125 0.28125 0 0.8125 0.28125 0 0.84375 0.28125 0 0.875 0.28125 0 0.90625 0.28125 0 0.9375 0.28125 0 0.96875 0.28125 0 1 0.28125 0 0 0.3125 0 0.03125 0.3125 0 0.0625 0.3125 0 0.09375 0.3125 0 0.125 0.3125 0 0.15625 0.3125 0 0.1875 0.3125 0 0.21875 0.3125 0 0.25 0.3125 0 0.28125 0.3125 0 0.3125 0.3125 0 0.34375 0.3125 0 0.375 0.3125 0 0.40625 0.3125 0 0.4375 0.3125 0 0.46875 0.3125 0 0.5 0.3125 0 0.53125 0.3125 0 0.5625 0.3125 0 0.59375 0.3125 0 0.625 0.3125 0 0.65625 0.3125 0 0.6875 0.3125 0 0.71875 0.3125 0 0.75 0.3125 0 0.78125 0.3125 0 0.8125 0.3125 0 0.84375 0.3125 0 0.875 0.3125 0 0.90625 0.3125 0 0.9375 0.3125 0 0.96875 0.3125 0 1 0.3125 0 0 0.34375 0 0.03125 0.34375 0 0.0625 0.34375 0 0.09375 0.34375 0 0.125 0.34375 0 0.15625 0.34375 0 0.1875 0.34375 0 0.21875 0.34375 0 0.25 0.34375 0 0.28125 0.34375 0 0.3125 0.34375 0 0.34375 0.34375 0 0.375 0.34375 0 0.40625 0.34375 0 0.4375 0.34375 0 0.46875 0.34375 0 0.5 0.34375 0 0.53125 0.34375 0 0.5625 0.34375 0 0.59375 0.34375 0 0.625 0.34375 0 0.65625 0.34375 0 0.6875 0.34375 0 0.71875 0.34375 0 0.75 0.34375 0 0.78125 0.34375 0 0.8125 0.34375 0 0.84375 0.34375 0 0.875 0.34375 0 0.90625 0.34375 0 0.9375 0.34375 0 0.96875 0.34375 0 1 0.34375 0 0 0.375 0 0.03125 0.375 0 0.0625 0.375 0 0.09375 0.375 0 0.125 0.375 0 0.15625 0.375 0 0.1875 0.375 0 0.21875 0.375 0 0.25 0.375 0 0.28125 0.375 0 0.3125 0.375 0 0.34375 0.375 0 0.375 0.375 0 0.40625 0.375 0 0.4375 0.375 0 0.46875 0.375 0 0.5 0.375 0 0.53125 0.375 0 0.5625 0.375 0 0.59375 0.375 0 0.625 0.375 0 0.65625 0.375 0 0.6875 0.375 0 0.71875 0.375 0 0.75 0.375 0 0.78125 0.375 0 0.8125 0.375 0 0.84375 0.375 0 0.875 0.375 0 0.90625 0.375 0 0.9375 0.375 0 0.96875 0.375 0 1 0.375 0 0 0.40625 0 0.03125 0.40625 0 0.0625 0.40625 0 0.09375 0.40625 0 0.125 0.40625 0 0.15625 0.40625 0 0.1875 0.40625 0 0.21875 0.40625 0 0.25 0.40625 0 0.28125 0.40625 0 0.3125 0.40625 0 0.34375 0.40625 0 0.375 0.40625 0 0.40625 0.40625 0 0.4375 0.40625 0 0.46875 0.40625 0 0.5 0.40625 0 0.53125 0.40625 0 0.5625 0.40625 0 0.59375 0.40625 0 0.625 0.40625 0 0.65625 0.40625 0 0.6875 0.40625 0 0.71875 0.40625 0 0.75 0.40625 0 0.78125 0.40625 0 0.8125 0.40625 0 0.84375 0.40625 0 0.875 0.40625 0 0.90625 0.40625 0 0.9375 0.40625 0 0.96875 0.40625 0 1 0.40625 0 0 0.4375 0 0.03125 0.4375 0 0.0625 0.4375 0 0.09375 0.4375 0 0.125 0.4375 0 0.15625 0.4375 0 0.1875 0.4375 0 0.21875 0.4375 0 0.25 0.4375 0 0.28125 0.4375 0 0.3125 0.4375 0 0.34375 0.4375 0 0.375 0.4375 0 0.40625 0.4375 0 0.4375 0.4375 0 0.46875 0.4375 0 0.5 0.4375 0 0.53125 0.4375 0 0.5625 0.4375 0 0.59375 0.4375 0 0.625 0.4375 0 0.65625 0.4375 0 0.6875 0.4375 0 0.71875 0.4375 0 0.75 0.4375 0 0.78125 0.4375 0 0.8125 0.4375 0 0.84375 0.4375 0 0.875 0.4375 0 0.90625 0.4375 0 0.9375 0.4375 0 0.96875 0.4375 0 1 0.4375 0 0 0.46875 0 0.03125 0.46875 0 0.0625 0.46875 0 0.09375 0.46875 0 0.125 0.46875 0 0.15625 0.46875 0 0.1875 0.46875 0 0.21875 0.46875 0 0.25 0.46875 0 0.28125 0.46875 0 0.3125 0.46875 0 0.34375 0.46875 0 0.375 0.46875 0 0.40625 0.46875 0 0.4375 0.46875 0 0.46875 0.46875 0 0.5 0.46875 0 0.53125 0.46875 0 0.5625 0.46875 0 0.59375 0.46875 0 0.625 0.46875 0 0.65625 0.46875 0 0.6875 0.46875 0 0.71875 0.46875 0 0.75 0.46875 0 0.78125 0.46875 0 0.8125 0.46875 0 0.84375 0.46875 0 0.875 0.46875 0 0.90625 0.46875 0 0.9375 0.46875 0 0.96875 0.46875 0 1 0.46875 0 0 0.5 0 0.03125 0.5 0 0.0625 0.5 0 0.09375 0.5 0 0.125 0.5 0 0.15625 0.5 0 0.1875 0.5 0 0.21875 0.5 0 0.25 0.5 0 0.28125 0.5 0 0.3125 0.5 0 0.34375 0.5 0 0.375 0.5 0 0.40625 0.5 0 0.4375 0.5 0 0.46875 0.5 0 0.5 0.5 0 0.53125 0.5 0 0.5625 0.5 0 0.59375 0.5 0 0.625 0.5 0 0.65625 0.5 0 0.6875 0.5 0 0.71875 0.5 0 0.75 0.5 0 0.78125 0.5 0 0.8125 0.5 0 0.84375 0.5 0 0.875 0.5 0 0.90625 0.5 0 0.9375 0.5 0 0.96875 0.5 0 1 0.5 0 0 0.53125 0 0.03125 0.53125 0 0.0625 0.53125 0 0.09375 0.53125 0 0.125 0.53125 0 0.15625 0.53125 0 0.1875 0.53125 0 0.21875 0.53125 0 0.25 0.53125 0 0.28125 0.53125 0 0.3125 0.53125 0 0.34375 0.53125 0 0.375 0.53125 0 0.40625 0.53125 0 0.4375 0.53125 0 0.46875 0.53125 0 0.5 0.53125 0 0.53125 0.53125 0 0.5625 0.53125 0 0.59375 0.53125 0 0.625 0.53125 0 0.65625 0.53125 0 0.6875 0.53125 0 0.71875 0.53125 0 0.75 0.53125 0 0.78125 0.53125 0 0.8125 0.53125 0 0.84375 0.53125 0 0.875 0.53125 0 0.90625 0.53125 0 0.9375 0.53125 0 0.96875 0.53125 0 1 0.53125 0 0 0.5625 0 0.03125 0.5625 0 0.0625 0.5625 0 0.09375 0.5625 0 0.125 0.5625 0 0.15625 0.5625 0 0.1875 0.5625 0 0.21875 0.5625 0 0.25 0.5625 0 0.28125 0.5625 0 0.3125 0.5625 0 0.34375 0.5625 0 0.375 0.5625 0 0.40625 0.5625 0 0.4375 0.5625 0 0.46875 0.5625 0 0.5 0.5625 0 0.53125 0.5625 0 0.5625 0.5625 0 0.59375 0.5625 0 0.625 0.5625 0 0.65625 0.5625 0 0.6875 0.5625 0 0.71875 0.5625 0 0.75 0.5625 0 0.78125 0.5625 0 0
[...]
      <CellData>
        <DataArray type="Float64" Name="velocity_magnitude" format="ascii">
          0.000207251450476211 0.000242327471856455 8.79685113547888e-05 0.000425991533362493 0.00120476111976582 0.00217216899034249 0.00330336913524829 0.00448394309496567 0.00572323309671986 0.00692336542286942 0.00809630333925187 0.0091653921671722 0.010129253165712 0.0109282811223678 0.0115462223968407 0.0119388879018272 0.0120821833617425 0.011951923179464 0.0115301472190954 0.0108268274179076 0.00984083197758196 0.00862968026927561 0.00722023703855565 0.00572084580710129 0.00418516366870217 0.00275091445513625 0.00148429389576087 0.000498994428086089 0.000144669666896295 0.000444748484833139 0.000365442077189916 0.000179946543682745 0.000262546323925842 0.000252156838046376 0.00125668692059391 0.00291099911767376 0.00508911545962759 0.00768551801351031 0.0106233067924424 0.0137059861673658 0.0168904276993257 0.01999337978322 0.0229794915894099 0.0256981698404713 0.0281033193297218 0.0300745489188718 0.0315547877389076 0.0324555328706058 0.0327230937436672 0.0323134665103252 0.0311982004455361 0.0294016869364584 0.0269475741216399 0.0239539626075827 0.0205127473680381 0.0168372588778151 0.0130790761986891 0.00950137682245581 0.00627656784927481 0.00360958058490545 0.00163517024907836 0.000340829645740816 0.000249422560231312 0.000364269395803574 0.000110566262392572 0.00130683077039619 0.00347693690431864 0.00645617037617277 0.0100415917759056 0.0141288669803641 0.018617046861602 0.0232804140196545 0.0280394359030496 0.0326619939235747 0.0370720022544498 0.0410702154439374 0.0445733715666224 0.047421599424181 0.0495293417608056 0.0507828290057739 0.0511132299447933 0.0504688927969656 0.0488215212813337 0.0462090674088942 0.0426749680213002 0.0383732082016753 0.033433966259285 0.0281233409009008 0.0226452555882541 0.0173183389115931 0.0123736274493222 0.00805136187447292 0.00454934473411076 0.00187682564737889 0.00025554934325379 0.000469400596711988 0.000441698166059773 0.00310601449845521 0.0066594302395539 0.0110522176424649 0.016021647239608 0.0214581430572245 0.0272619790214789 0.0332036508668934 0.0391942282555977 0.04497640719186 0.0504525443463688 0.0553924134917725 0.0596910409327803 0.0631645155836206 0.0657130437266345 0.0672113874763661 0.0675865867142442 0.0667882726086752 0.0647926570677617 0.0616489199741292 0.0574078832366468 0.0522377125497243 0.0462736814656834 0.0397929979077597 0.0330038893040402 0.0262331397326609 0.0197321728623404 0.0137632556025188 0.00860098344828891 0.00433863202335277 0.00137135770846172 0.000284511048182582 0.00133933017357965 0.00565218274994072 0.0107714366563827 0.0166330188065547 0.0229485054845429 0.029615221404721 0.0365493977639676 0.0435337999104771 0.0504906957956857 0.0571554832896676 0.0634276914558651 0.0690609085639945 0.0739434630956 0.0778792005920193 0.0807653530356704 0.0824736710315715 0.0829329447710796 0.0820980987704033 0.079947096687579 0.0765334161409485 0.0718995948947582 0.0662075464302664 0.0595679226731142 0.0522379230113285 0.0443952286745654 0.036347425229969 0.0283493665942515 0.0206850124065608 0.013724832912925 0.00766306004644609 0.00308928391402649 0.000172056852984571 0.00256559370490381 0.00893539547835151 0.0158188822466402 0.0231888496267214 0.0307902635280634 0.038548335572426 0.0464197221331037 0.0542139841439399 0.0618839860636367 0.0691734231414739 0.0759960582057325 0.0821029523895609 0.0873893773960518 0.0916574965519769 0.0948109620505821 0.096725218676655 0.0973343475259244 0.0966005287223247 0.0944985483081826 0.091078210531179 0.0863576298634016 0.0804733183323681 0.0734839897366664 0.0656004497424633 0.0569397543834832 0.0477695524442031 0.038331882219938 0.0289317156372296 0.0200399954570103 0.0119613001061347 0.00548108622250172 0.000870355234959936 0.00412615817074347 0.0129621793242084 0.021815889562438 0.0307430860502813 0.0395746094183049 0.0482952092194493 0.0569270718349468 0.0653245206718614 0.0734877452044571 0.0811834348118601 0.0883538954490159 0.0947598011600171 0.10031486352494 0.104828139060732 0.108217269061222 0.110365438714703 0.111213743575252 0.110732397280457 0.108886112473791 0.10571270336416 0.101191371301721 0.0954160512557582 0.0883699483158543 0.0801950204032029 0.070921385888045 0.0607571111694261 0.0499142032080954 0.0387104285336401 0.0277183368851181 0.0173533288226732 0.0086073349713968 0.00184606002867599 0.00595234035623672 0.0176308312770559 0.0286615380948882 0.0392031521514349 0.0492170048905088 0.0587767003131567 0.0679982508709448 0.0767994857768176 0.08524530103781 0.0931397994744001 0.100467239697531 0.107009583295017 0.112709443933088 0.117391083181264 0.12099283584457 0.123409458605611 0.12459086311299 0.124512643506949 0.123126815505411 0.120452455845619 0.116417311140704 0.11105849561491 0.104261999519169 0.0960801604421096 0.0864276894908388 0.0754297887581717 0.0632409113026849 0.0501747428768879 0.0368950728497213 0.0239286472528598 0.012494136979269 0.00307229567263514 0.00805514745340738 0.0229298556033294 0.0363347235393724 0.0485542302700595 0.0597157720057202 0.0700080700719423 0.0796660380728207 0.088689671077308 0.0972245571491082 0.105126326417841 0.112433379599059 0.118960242063085 0.124688332757193 0.129464960172064 0.133256932399065 0.135972748217732 0.13757763219807 0.138042010970887 0.137313317135521 0.135383553571481 0.132121503773039 0.127494941253798 0.121273334772119 0.113398948354722 0.10363946770737 0.0920081593549556 0.078563457035502 0.0635872357288639 0.0478148886706427 0.0318842807916008 0.0172724577968684 0.00460677787245288 0.0103644490876972 0.0287371681109389 0.0446949250413541 0.0586568079469301 0.0709429847866271 0.0818767460070661 0.0918338353079278 0.100911899335621 0.109352089342081 0.117074326852746 0.124182686886042 0.130535493364327 0.136162502382424 0.1409435459048 0.144880942519343 0.147903595320634 0.149995492834337 0.151124064520375 0.151232476338393 0.150286028081923 0.148088110445882 0.144529893228647 0.139245982051337 0.132049129655017 0.122523406172236 0.110535107061152 0.0959930655499976 0.0791073945168775 0.0606481155309212 0.0413616281308878 0.0230215569925814 0.00645838235462296 0.0128788846439073 0.0350147106242375 0.0536808489782367 0.0694443547973428 0.0828396945052396 0.0943382679786159 0.104474118967782 0.113453698129778 0.121626231945478 0.128986102570493 0.135713385319407 0.14172062449606 0.147095667191852 0.151761327502636 0.155764645387589 0.159064313528324 0.161669644773213 0.163553473869177 0.164655084603632 0.164917613389505 0.164077458745389 0.161944988215434 0.158003993510348 0.151919047509406 0.143049963225158 0.131075927049644 0.115687258349338 0.0969684981920489 0.0756645595986181 0.0526192559499375 0.0299375855272118 0.00871798607057685 0.0155320176482876 0.0416384573274228 0.0631421044618743 0.0807602381179203 0.0952566124126923 0.107257147419664 0.117468146745999 0.126210060819204 0.133950667565226 0.140764952989411 0.146918101821645 0.152385791578007 0.157323887630773 0.161710322455386 0.165648388002862 0.169140639794229 0.172232994658893 0.174914735678361 0.177127592122542 0.178801817027136 0.179609193960446 0.179279286331973 0.177131403611728 0.172665554590403 0.164973461764276 0.153504431036897 0.137644862176045 0.117285333302453 0.0930534053952758 0.0658629304858225 0.0381720986743052 0.0114339061919662 0.018307479799583 0.0485453820785989 0.0729835840209824 0.0924934374742178 0.108079946476462 0.120524204377126 0.130717139126516 0.139092133703205 0.146244426775298 0.152330034891174 0.157706369571029 0.162417595343734 0.166696869282196 0.170589709269087 0.174269941365294 0.177803292772367 0.181288664041683 0.184752075466214 0.188145299143084 0.191399584938087 0.194131630703902 0.195993030468862 0.19612890059842 0.193861601248509 0.187969884777655 0.177631356193888 0.161828216431874 0.140175286569586 0.113050014173762 0.0813823757392554 0.0479743836158288 0.0147258969736756 0.0211413377564267 0.0556143017972095 0.083057226019465 0.104486810075355 0.121156493864922 0.133995030962227 0.144090160461211 0.151979475409108 0.158394650126184 0.163566433127972 0.167950323603279 0.171659433177725 0.175012577529962 0.178134275714616 0.181286420247283 0.184621960868503 0.188317801245515 0.192466120480849 0.19704052470918 0.201994762595813 0.206903926611287 0.211347404848253 0.214289657970672 0.21486687358294 0.211500994331996 0.203061674259577 0.188013986069254 0.165605571179471 0.135782609774012 0.0994008881950328 0.0595468820571469 0.0186738758438328 0.0240139869542696 0.0627769359361548 0.0932547206377096 0.11660154018263 0.134327857562664 0.14749730224024 0.157411847491602 0.164697281032117 0.170233328482968 0.174310542745812 0.177486504736142 0.179935284970111 0.182065805012021 0.184087970048004 0.186369252017484 0.18917744070559 0.192800107354901 0.197444549142365 0.203119266756662 0.209822758153273 0.217117523730488 0.224515119598018 0.230799130466773 0.234916767879321 0.234893267890107 0.229265472302085 0.215860327691829 0.193464673735721 0.161359076780835 0.120188176606509 0.0731815211477416 0.0234367359930602 0.0268608379949648 0.0699207052150633 0.103444642555439 0.12869879562036 0.147458736323844 0.160898967049807 0.170559596849592 0.177128520341315 0.181651002845847 0.184453761825815 0.186201787378076 0.187113255395005 0.187688372763388 0.188220412807958 0.189200286444992 0.19103569361927 0.194176927537896 0.198987189406155 0.20557581076902 0.213998281415208 0.223832462731071 0.234527191214032 0.244686508176994 0.253071880861097 0.257277673287305 0.25550084777251 0.24480621315537 0.223434792262885 0.189713115391604 0.143886902063307 0.0890756298298425 0.0291016773588042 0.0296900101986406 0.0770186528550645 0.113548673277971 0.140640643914541 0.160359078218446 0.173960129798321 0.183264591201986 0.188986606318681 0.192365304248567 0.193728654884784 0.193855442008792 0.192977968677942 0.1916809101169 0.190323409088632 0.189527602769205 0.189855830841133 0.191986201217026 0.196478197032052 0.203667023582644 0.213661869880308 0.226099093778446 0.240366368646168 0.254893972406866 0.268267869486641 0.277627551424414 0.280847522085066 0.274111638923162 0.255054039089117 0.220707130178283 0.170678220521613 0.107561276906562 0.035901492376404 0.0324263677425441 0.0839734380042186 0.123473873517914 0.152336275742975 0.172946667732484 0.186597551378656 0.195449332167325 0.200192450843407 0.202303000384409 0.202065782274745 0.200388174173782 0.197477296940438 0.193991042166912 0.190321365050418 0.187212427154063 0.185388151360657 0.185812028755243 0.189327201650366 0.196630926091447 0.207907441321429 0.222915616374702 0.240962931738775 0.260300262621531 0.27934915223095 0.29477999234146 0.304196281146806 0.302792969785106 0.287576520969612 0.253903644927561 0.200465469168154 0.128720626876864 0.0438731120319137 0.0351718814133316 0.0908900603178344 0.133250015291778 0.163689073079871 0.185007807648052 0.198476916869112 0.206702646303848 0.21028198534369 0.210994124643822 0.2090206681291 0.205419140715667 0.200317818737086 0.194430740580227 0.188124701657703 0.182229207993981 0.177596107070936 0.1755135423365 0.177199788394681 0.18390702378969 0.19599531223328 0.213388677810181 0.235293156453895 0.259764734954793 0.285072253680989 0.307425179788857 0.324245154775761 0.329656634035466 0.320085331052 0.288794275684273 0.23326587152273 0.152946570830613 0.0534101069546933 0.0378076694273626 0.0976818802328053 0.142843697837946 0.174696794339924 0.196563062762929 0.209621722643579 0.217050510053182 0.219270546080354 0.218450997840054 0.214603080534333 0.208975296505181 0.201560537214594 0.193115781286462 0.183908435561014 0.174788033689234 0.166653776467842 0.161097455272149 0.159831629292772 0.16488923034099 0.177146432005293 0.196643794843745 0.222421020527199 0.252259286424076 0.284280463590449 0.314258820305451 0.339588380076075 0.353273181744079 0.351279321028027 0.324356397559981 0.268503117839589 0.180004404978684 0.0643794132929889 0.0406753337951412 0.104755045244712 0.152527798354625 0.185339359828757 0.207353674682719 0.219514607913329 0.225822143610001 0.226376948367794 0.223868339039971 0.218042695180141 0.210388972836724 0.200696707519639 0.189762011842111 0.177663446494133 0.165179789567659 0.153087712354607 0.143152565058225 0.137598774452582 0.13957079099379 0.150987100320661 0.172133051050129 0.201634576096411 0.236883100703402 0.275821665837564 0.313879331412338 0.348636751042059 0.371983564677595 0.379704839324221 0.359579512747249 0.305956205085032 0.21041464369215 0.0775379993849834 0.0435200449736701 0.111995003706711 0.162319066982052 0.195751344827658 0.217554072246745 0.228371265287326 0.233225244129261 0.231796024180334 0.227418157210557 0.219490778091091 0.209821714008098 0.197941573800244 0.18470097525696 0.169904610849899 0.154181269806081 0.137936476705548 0.122809179645831 0.111243269887021 0.108018727768538 0.117078063784443 0.139468218622283 0.172690816646789 0.213312401431819 0.259082641449266 0.305244118302522 0.349929956899793 0.384006373409995 0.403402681645521 0.392596010374646 0.344197566406966 0.243271014741403 0.0923717476142684 0.0472803763720609 0.120412441220564 0.172954761008444 0.205931513423113 0.226729281601168 0.235230131127396 0.238062148036573 0.234148152766124 0.227699316129849 0.217625005465547 0.206126898823997 0.192410813039953 0.177433712632703 0.160681557855846 0.142589870667482 0.122957168817333 0.102775370676106 0.0836479352100575 0.0716903199614592 0.0755943053635914 0.0990997377635014 0.136289031726876 0.181944779270723 0.233878249521123 0.287457394194912 0.34193796032225 0.387269451743915 0.420307191034529 0.421686535190239 0.382647248056903 0.27931777396598 0.11045585710305 0.0513390452723372 0.129754099896202 0.184371053722005 0.216209629030186 0.235200778117193 0.240610379465718 0.240777591778662 0.233906674634057 0.225146725739568 0.212870850745137 0.199795537711765 0.184779343246852 0.168964487072763 0.151502715005747 0.1327621327782 0.111917610827447 0.0890764800100903 0.0635595647508318 0.0376296260182681 0.0260423315745939 0.053914261224212 0.0966755337430696 0.14615065945774 0.202280097904358 0.261130419152887 0.323990330889124 0.380134000577266 0.427785232510069 0.443825245630287 0.418377779818896 0.316323892674521 0.130560885223766 0.058225183133304 0.142077845785228 0.198002555330857 0.226076779449586 0.24181594165972 0.242332083518235 0.23901403056363 0.228516654009179 0.217361010714124 0.203189673735994 0.189344304058825 0.174249590305966 0.159441018287533 0.143820115985493 0.127890546233827 0.110619133696417 0.0920185752431139 0.0713782731243131 0.0492971207650229 0.0311727625432987 0.0380432180480932 0.0722530497807506 0.116192838598851 0.170220698808391 0.228904184299342 0.296350503533864 0.360625479066497 0.423230426680264 0.456134574066726 0.45007927179164 0.355147540629159 0.156062165800755 0.0664069478817076 0.156695979741924 0.213111824832154 0.236063361899381 0.246702203190554 0.241226156572959 0.233295076198436 0.218824991116698 0.205424324603449 0.190095538592072 0.177094222478575 0.164374367603809 0.153957601109662 0.144253497630587 0.135959087502623 0.127923664618109 0.120059701085917 0.112085169821788 0.103729061966771 0.097262525408903 0.0936110347122441 0.100892778720725 0.118931962605446 0.154598470603307 0.200424573961306 0.263606599139654 0.329958075720718 0.404101798732364 0.454271958165503 0.472059535929654 0.390840031247213 0.184304680419111 0.0830037863367443 0.1766342829064 0.23106797501838 0.242671979021922 0.245896814019874 0.231660106815417 0.218802728680961 0.200509396410615 0.186637095726443 0.173269653720754 0.165608992233843 0.160406624976316 0.15977256208369 0.161026771079492 0.164419217416435 0.168178154132845 0.171597386721408 0.174228398400879 0.174683700812777 0.174332125890426 0.171127223894803 0.169914908173823 0.168633863450918 0.178269899600762 0.196132622812077 0.237900545195088 0.291257198898772 0.369547242515516 0.433856924540504 0.481266739097703 0.423067563220852 0.222327960589223 0.103781264272248 0.199723940126177 0.247885564880164 0.245767958821059 0.237742347548567 0.214540569204055 0.197009010787658 0.178358142597559 0.170249386213062 0.166507098534092 0.172032034900228 0.180824824879562 0.194183156642078 0.208136363076578 0.222769584194577 0.236336227390266 0.248113178611672 0.257944666962368 0.264123209346381 0.268036198648263 0.266594832708986 0.263573404521876 0.254176840191949 0.247312260565599 0.237552150760128 0.245684620032245 0.265436589610702 0.325459382733061 0.391858531866077 0.467310032986209 0.440919132006309 0.262830192234503 0.148178924995573 0.223673138479656 0.257246839636799 0.229948222315114 0.210803835098923 0.180873389514584 0.170187463909321 0.165883606523342 0.178917393674621 0.196084939744786 0.220588977310459 0.244621603502257 0.270080317455209 0.293544669495053 0.315723425732158 0.335445539507466 0.352215853942213 0.366227448906565 0.375700058272151 0.382141766771515 0.382069659955827 0.37885829539028 0.366439901736982 0.352179555636108 0.326898326248191 0.307127467872366 0.283729197224824 0.298441619663808 0.333901230095181 0.425924935492577 0.437338376405204 0.317869356044492 0.194857988541215 0.238897995398788 0.243228656340821 0.195778368407354 0.180487056814853 0.174209294804993 0.201063569819593 0.230003522177349 0.268962958367199 0.303604340481294 0.339751000930214 0.371542065108764 0.402121248905972 0.429087510503737 0.453586341516816 0.474927658166749 0.492787026393399 0.507593722631212 0.51761085741998 0.524468240721753 0.524500053413505 0.521121049609911 0.507655569036065 0.491173073392862 0.45992040793227 0.427924686090716 0.376487301289719 0.34062080943613 0.304716392133043 0.35843996966209 0.391399714905364 0.354857246724785 0.275534189923856 0.19864662024607 0.208215473715011 0.208110109698481 0.267429967473525 0.318002054890321 0.376222107828008 0.42234717775281 0.468016995021004 0.50511952626059 0.540313730184874 0.569809961397944 0.59694776459955 0.620131573840862 0.640599536987416 0.658014182052608 0.672157916144912 0.683625626170298 0.690818008602131 0.695473308893255 0.694034782506522 0.690114378043368 0.677278643114881 0.662296610655694 0.633394894573884 0.602726440330198 0.548869658361188 0.495171655455674 0.406435394023552 0.358696564863392 0.31111046826356 0.382214657858983 0.266929071204898 0.316849934357318 0.488598084035759 0.569727108762404 0.651070662193225 0.698241705074501 0.741178271362556 0.769495645161684 0.795454299857655 0.814281049982118 0.831637877033002 0.845122812303801 0.857342479453033 0.867240591229521 0.875766414049459 0.882724492786829 0.887984905161337 0.89205662854743 0.893808760373 0.894643324446061 0.892087301451361 0.889188370148968 0.881081342834713 0.873434191212833 0.856940824203077 0.841870556166386 0.809169646306976 0.777414042268965 0.700847137759888 0.621611879728337 0.414399684808642 0.307278268045679
        </DataArray>
        <DataArray type="Float64" Name="pressure" format="ascii">