<?xml version="1.0"?>
<VTKFile type="UnstructuredGrid" version="0.1" byte_order="LittleEndian">
  <UnstructuredGrid>
    <Piece NumberOfPoints="4225" NumberOfCells="4096">
      <Points>
        <DataArray type="Float64" NumberOfComponents="3" format="ascii">
          0 0 0 0.015625 0 0 0.03125 0 0 0.046875 0 0 0.0625 0 0 0.078125 0 0 0.09375 0 0 0.109375 0 0 0.125 0 0 0.140625 0 0 0.15625 0 0 0.171875 0 0 0.1875 0 0 0.203125 0 0 0.21875 0 0 0.234375 0 0 0.25 0 0 0.265625 0 0 0.28125 0 0 0.296875 0 0 0.3125 0 0 0.328125 0 0 0.34375 0 0 0.359375 0 0 0.375 0 0 0.390625 0 0 0.40625 0 0 0.421875 0 0 0.4375 0 0 0.453125 0 0 0.46875 0 0 0.484375 0 0 0.5 0 0 0.515625 0 0 0.53125 0 0 0.546875 0 0 0.5625 0 0 0.578125 0 0 0.59375 0 0 0.609375 0 0 0.625 0 0 0.640625 0 0 0.65625 0 0 0.671875 0 0 0.6875 0 0 0.703125 0 0 0.71875 0 0 0.734375 0 0 0.75 0 0 0.765625 0 0 0.78125 0 0 0.796875 0 0 0.8125 0 0 0.828125 0 0 0.84375 0 0 0.859375 0 0 0.875 0 0 0.890625 0 0 0.90625 0 0 0.921875 0 0 0.9375 0 0 0.953125 0 0 0.96875 0 0 0.984375 0 0 1 0 0 0 0.015625 0 0.015625 0.015625 0 0.03125 0.015625 0 0.046875 0.015625 0 0.0625 0.015625 0 0.078125 0.015625 0 0.09375 0.015625 0 0.109375 0.015625 0 0.125 0.015625 0 0.140625 0.015625 0 0.15625 0.015625 0 0.171875 0.015625 0 0.1875 0.015625 0 0.203125 0.015625 0 0.21875 0.015625 0 0.234375 0.015625 0 0.25 0.015625 0 0.265625 0.015625 0 0.28125 0.015625 0 0.296875 0.015625 0 0.3125 0.015625 0 0.328125 0.015625 0 0.34375 0.015625 0 0.359375 0.015625 0 0.375 0.015625 0 0.390625 0.015625 0 0.40625 0.015625 0 0.421875 0.015625 0 0.4375 0.015625 0 0.453125 0.015625 0 0.46875 0.015625 0 0.484375 0.015625 0 0.5 0.015625 0 0.515625 0.015625 0 0.53125 0.015625 0 0.546875 0.015625 0 0.5625 0.015625 0 0.578125 0.015625 0 0.59375 0.015625 0 0.609375 0.015625 0 0.625 0.015625 0 0.640625 0.015625 0 0.65625 0.015625 0 0.671875 0.015625 0 0.6875 0.015625 0 0.703125 0.015625 0 0.71875 0.015625 0 0.734375 0.015625 0 0.75 0.015625 0 0.765625 0.015625 0 0.78125 0.015625 0 0.796875 0.015625 0 0.8125 0.015625 0 0.828125 0.015625 0 0.84375 0.015625 0 0.859375 0.015625 0 0.875 0.015625 0 0.890625 0.015625 0 0.90625 0.015625 0 0.921875 0.015625 0 0.9375 0.015625 0 0.953125 0.015625 0 0.96875 0.015625 0 0.984375 0.015625 0 1 0.015625 0 0 0.03125 0 0.015625 0.03125 0 0.03125 0.03125 0 0.046875 0.03125 0 0.0625 0.03125 0 0.078125 0.03125 0 0.09375 0.03125 0 0.109375 0.03125 0 0.125 0.03125 0 0.140625 0.03125 0 0.15625 0.03125 0 0.171875 0.03125 0 0.1875 0.03125 0 0.203125 0.03125 0 0.21875 0.03125 0 0.234375 0.03125 0 0.25 0.03125 0 0.265625 0.03125 0 0.28125 0.03125 0 0.296875 0.03125 0 0.3125 0.03125 0 0.328125 0.03125 0 0.34375 0.03125 0 0.359375 0.03125 0 0.375 0.03125 0 0.390625 0.03125 0 0.40625 0.03125 0 0.421875 0.03125 0 0.4375 0.03125 0 0.453125 0.03125 0 0.46875 0.03125 0 0.484375 0.03125 0 0.5 0.03125 0 0.515625 0.03125 0 0.53125 0.03125 0 0.546875 0.03125 0 0.5625 0.03125 0 0.578125 0.03125 0 0.59375 0.03125 0 0.609375 0.03125 0 0.625 0.03125 0 0.640625 0.03125 0 0.65625 0.03125 0 0.671875 0.03125 0 0.6875 0.03125 0 0.703125 0.03125 0 0.71875 0.03125 0 0.734375 0.03125 0 0.75 0.03125 0 0.765625 0.03125 0 0.78125 0.03125 0 0.796875 0.03125 0 0.8125 0.03125 0 0.828125 0.03125 0 0.84375 0.03125 0 0.859375 0.03125 0 0.875 0.03125 0 0.890625 0.03125 0 0.90625 0.03125 0 0.921875 0.03125 0 0.9375 0.03125 0 0.953125 0.03125 0 0.96875 0.03125 0 0.984375 0.03125 0 1 0.03125 0 0 0.046875 0 0.015625 0.046875 0 0.03125 0.046875 0 0.046875 0.046875 0 0.0625 0.046875 0 0.078125 0.046875 0 0.09375 0.046875 0 0.109375 0.046875 0 0.125 0.046875 0 0.140625 0.046875 0 0.15625 0.046875 0 0.171875 0.046875 0 0.1875 0.046875 0 0.203125 0.046875 0 0.21875 0.046875 0 0.234375 0.046875 0 0.25 0.046875 0 0.265625 0.046875 0 0.28125 0.046875 0 0.296875 0.046875 0 0.3125 0.046875 0 0.328125 0.046875 0 0.34375 0.046875 0 0.359375 0.046875 0 0.375 0.046875 0 0.390625 0.046875 0 0.40625 0.046875 0 0.421875 0.046875 0 0.4375 0.046875 0 0.453125 0.046875 0 0.46875 0.046875 0 0.484375 0.046875 0 0.5 0.046875 0 0.515625 0.046875 0 0.53125 0.046875 0 0.546875 0.046875 0 0.5625 0.046875 0 0.578125 0.046875 0 0.59375 0.046875 0 0.609375 0.046875 0 0.625 0.046875 0 0.640625 0.046875 0 0.65625 0.046875 0 0.671875 0.046875 0 0.6875 0.046875 0 0.703125 0.046875 0 0.71875 0.046875 0 0.734375 0.046875 0 0.75 0.046875 0 0.765625 0.046875 0 0.78125 0.046875 0 0.796875 0.046875 0 0.8125 0.046875 0 0.828125 0.046875 0 0.84375 0.046875 0 0.859375 0.046875 0 0.875 0.046875 0 0.890625 0.046875 0 0.90625 0.046875 0 0.921875 0.046875 0 0.9375 0.046875 0 0.953125 0.046875 0 0.96875 0.046875 0 0.984375 0.046875 0 1 0.046875 0 0 0.0625 0 0.015625 0.0625 0 0.03125 0.0625 0 0.046875 0.0625 0 0.0625 0.0625 0 0.078125 0.0625 0 0.09375 0.0625 0 0.109375 0.0625 0 0.125 0.0625 0 0.140625 0.0625 0 0.15625 0.0625 0 0.171875 0.0625 0 0.1875 0.0625 0 0.203125 0.0625 0 0.21875 0.0625 0 0.234375 0.0625 0 0.25 0.0625 0 0.265625 0.0625 0 0.28125 0.0625 0 0.296875 0.0625 0 0.3125 0.0625 0 0.328125 0.0625 0 0.34375 0.0625 0 0.359375 0.0625 0 0.375 0.0625 0 0.390625 0.0625 0 0.40625 0.0625 0 0.421875 0.0625 0 0.4375 0.0625 0 0.453125 0.0625 0 0.46875 0.0625 0 0.484375 0.0625 0 0.5 0.0625 0 0.515625 0.0625 0 0.53125 0.0625 0 0.546875 0.0625 0 0.5625 0.0625 0 0.578125 0.0625 0 0.59375 0.0625 0 0.609375 0.0625 0 0.625 0.0625 0 0.640625 0.0625 0 0.65625 0.0625 0 0.671875 0.0625 0 0.6875 0.0625 0 0.703125 0.0625 0 0.71875 0.0625 0 0.734375 0.0625 0 0.75 0.0625 0 0.765625 0.0625 0 0.78125 0.0625 0 0.796875 0.0625 0 0.8125 0.0625 0 0.828125 0.0625 0 0.84375 0.0625 0 0.859375 0.0625 0 0.875 0.0625 0 0.890625 0.0625 0 0.90625 0.0625 0 0.921875 0.0625 0 0.9375 0.0625 0 0.953125 0.0625 0 0.96875 0.0625 0 0.984375 0.0625 0 1 0.0625 0 0 0.078125 0 0.015625 0.078125 0 0.03125 0.078125 0 0.046875 0.078125 0 0.0625 0.078125 0 0.078125 0.078125 0 0.09375 0.078125 0 0.109375 0.078125 0 0.125 0.078125 0 0.140625 0.078125 0 0.15625 0.078125 0 0.171875 0.078125 0 0.1875 0.078125 0 0.203125 0.078125 0 0.21875 0.078125 0 0.234375 0.078125 0 0.25 0.078125 0 0.265625 0.078125 0 0.28125 0.078125 0 0.296875 0.078125 0 0.3125 0.078125 0 0.328125 0.078125 0 0.34375 0.078125 0 0.359375 0.078125 0 0.375 0.078125 0 0.390625 0.078125 0 0.40625 0.078125 0 0.421875 0.078125 0 0.4375 0.078125 0 0.453125 0.078125 0 0.46875 0.078125 0 0.484375 0.078125 0 0.5 0.078125 0 0.515625 0.078125 0 0.53125 0.078125 0 0.546875 0.078125 0 0.5625 0.078125 0 0.578125 0.078125 0 0.59375 0.078125 0 0.609375 0.078125 0 0.625 0.078125 0 0.640625 0.078125 0 0.65625 0.078125 0 0.671875 0.078125 0 0.6875 0.078125 0 0.703125 0.078125 0 0.71875 0.078125 0 0.734375 0.078125 0 0.75 0.078125 0 0.765625 0.078125 0 0.78125 0.078125 0 0.796875 0.078125 0 0.8125 0.078125 0 0.828125 0.078125 0 0.84375 0.078125 0 0.859375 0.078125 0 0.875 0.078125 0 0.890625 0.078125 0 0.90625 0.078125 0 0.921875 0.078125 0 0.9375 0.078125 0 0.953125 0.078125 0 0.96875 0.078125 0 0.984375 0.078125 0 1 0.078125 0 0 0.09375 0 0.015625 0.09375 0 0.03125 0.09375 0 0.046875 0.09375 0 0.0625 0.09375 0 0.078125 0.09375 0 0.09375 0.09375 0 0.109375 0.09375 0 0.125 0.09375 0 0.140625 0.09375 0 0.15625 0.09375 0 0.171875 0.09375 0 0.1875 0.09375 0 0.203125 0.09375 0 0.21875 0.09375 0 0.234375 0.09375 0 0.25 0.09375 0 0.265625 0.09375 0 0.28125 0.09375 0 0.296875 0.09375 0 0.3125 0.09375 0 0.328125 0.09375 0 0.34375 0.09375 0 0.359375 0.09375 0 0.375 0.09375 0 0.390625 0.09375 0 0.40625 0.09375 0 0.421875 0.09375 0 0.4375 0.09375 0 0.453125 0.09375 0 0.46875 0.09375 0 0.484375 0.09375 0 0.5 0.09375 0 0.515625 0.09375 0 0.53125 0.09375 0 0.546875 0.09375 0 0.5625 0.09375 0 0.578125 0.09375 0 0.59375 0.09375 0 0.609375 0.09375 0 0.625 0.09375 0 0.640625 0.09375 0 0.65625 0.09375 0 0.671875 0.09375 0 0.6875 0.09375 0 0.703125 0.09375 0 0.71875 0.09375 0 0.734375 0.09375 0 0.75 0.09375 0 0.765625 0.09375 0 0.78125 0.09375 0 0.796875 0.09375 0 0.8125 0.09375 0 0.828125 0.09375 0 0.84375 0.09375 0 0.859375 0.09375 0 0.875 0.09375 0 0.890625 0.09375 0 0.90625 0.09375 0 0.921875 0.09375 0 0.9375 0.09375 0 0.953125 0.09375 0 0.96875 0.09375 0 0.984375 0.09375 0 1 0.09375 0 0 0.109375 0 0.015625 0.109375 0 0.03125 0.109375 0 0.046875 0.109375 0 0.0625 0.109375 0 0.078125 0.109375 0 0.09375 0.109375 0 0.109375 0.109375 0 0.125 0.109375 0 0.140625 0.109375 0 0.15625 0.109375 0 0.171875 0.109375 0 0.1875 0.109375 0 0.203125 0.109375 0 0.21875 0.109375 0 0.234375 0.109375 0 0.25 0.109375 0 0.265625 0.109375 0 0.28125 0.109375 0 0.296875 0.109375 0 0.3125 0.109375 0 0.328125 0.109375 0 0.34375 0.109375 0 0.359375 0.109375 0 0.375 0.109375 0 0.390625 0.109375 0 0.40625 0.109375 0 0.421875 0.109375 0 0.4375 0.109375 0 0.453125 0.109375 0 0.46875 0.109375 0 0.484375 0.109375 0 0.5 0.109375 0 0.515625 0.109375 0 0.53125 0.109375 0 0.546875 0.109375 0 0.5625 0.109375 0 0.578125 0.109375 0 0.59375 0.109375 0 0.609375 0.109375 0 0.625 0.109375 0 0.640625 0.109375 0 0.65625 0.109375 0 0.671875 0.109375 0 0.6875 0.109375 0 0.703125 0.109375 0 0.71875 0.109375 0 0.734375 0.109375 0 0.75 0.109375 0 0.765625 0.109375 0 0.78125 0.109375 0 0.796875 0.109375 0 0.8125 0.109375 0 0.828125 0.109375 0 0.84375 0.109375 0 0.859375 0.109375 0 0.875 0.109375 0 0.890625 0.109375 0 0.90625 0.109375 0 0.921875 0.109375 0 0.9375 0.109375 0 0.953125 0.109375 0 0.96875 0.109375 0 0.984375 0.109375 0 1 0.109375 0 0 0.125 0 0.015625 0.125 0 0.03125 0.125 0 0.046875 0.125 0 0.0625 0.125 0 0.078125 0.125 0 0.09375 0.125 0 0.109375 0.125 0 0.125 0.125 0 0.140625 0.125 0 0.15625 0.125 0 0.171875 0.125 0 0.1875 0.125 0 0.203125 0.125 0 0.21875 0.125 0 0.234375 0.125 0 0.25 0.125 0 0.265625 0.125 0 0.28125 0.125 0 0.296875 0.125 0 0.3125 0.125 0 0.328125 0.125 0 0.34375 0.125 0 0.359375 0.125 0 0.375 0.125 0 0.390625 0.125 0 0.40625 0.125 0 0.421875 0.125 0 0.4375 0.125 0 0.453125 0.125 0 0.46875 0.125 0 0.484375 0.125 0 0.5 0.125 0 0.515625 0.125 0 0.53125 0.125 0 0.546875 0.125 0 0.5625 0.125 0 0.578125 0.125 0 0.59375 
[...]
      <CellData>
        <DataArray type="Float64" Name="velocity_magnitude" format="ascii">
          2.7361870514269e-05 0.000119392046827836 0.000255491029998612 0.000328019746986242 0.000361952899367685 0.000315703141256662 0.000212223219147141 4.34984638602812e-05 0.000180469324225265 0.000453375165233457 0.000776988456837006 0.00113987905564421 0.00155096432882227 0.00199714486520187 0.00249004378109707 0.00301622324482513 0.00358660480383832 0.00418779632504595 0.00482790697209444 0.0054935724859356 0.00618903627530073 0.00690076601335884 0.00762882544248584 0.00835926863631931 0.00908816107716562 0.00980096527649228 0.0104902829883339 0.0111409780693515 0.011743003990126 0.0122808549449024 0.0127428744208826 0.0131137109498258 0.0133812177473432 0.0135315372679365 0.0135529693669643 0.0134401590742175 0.0131860955573302 0.0127867002488515 0.0122416505308749 0.0115542129361923 0.0107328050668263 0.00978986602517421 0.00874348179980704 0.00761506279161923 0.00643170874737931 0.00522144094744862 0.00401769501224231 0.00285038032073061 0.00175476063527984 0.000756768712006961 0.000132273917115703 0.000848738874853709 0.00141151997477938 0.00181470364010745 0.00204494452321511 0.00212623397439829 0.0020526885707663 0.00186570074481038 0.00156338983888506 0.00120392384984345 0.000796355650083333 0.000418936840046528 0.000114535555913256 5.09300005702861e-05 0.00012626128465341 0.000269636635876456 0.000403360800695988 0.000411318005939026 0.000329514712116957 0.000180164427620479 0.000437868635980468 0.000989635915931884 0.00169963246158129 0.0025503015888937 0.00353626368187047 0.00463984859003883 0.00586828310658905 0.00720124932448645 0.00864995016927064 0.010192682103347 0.0118388057877506 0.0135650303456152 0.0153751602500087 0.01724375849356 0.0191672302497336 0.0211175625715791 0.0230833549801056 0.0250339089220558 0.0269506611876337 0.0288005547072692 0.0305592988376819 0.032192325911884 0.0336717003275378 0.0349627570882786 0.0360366060524472 0.0368605428262628 0.0374082037319271 0.0376520089206903 0.0375729318840125 0.0371537200684686 0.0363830032870941 0.035255385754582 0.0337749169260928 0.0319538525582114 0.0298151909609559 0.0273910242318605 0.0247245699682807 0.0218669392639551 0.0188799153803261 0.0158292698306651 0.0127905497265043 0.00983681541958536 0.00705264705033965 0.00452009392615324 0.00239122664428889 0.00126535394993612 0.00200461170260989 0.00304315343019448 0.00378720673227708 0.00419115075875114 0.00423892793690728 0.00399889968058675 0.00349076612723001 0.00282414604178686 0.00204181714711834 0.00128097384208453 0.000607888826632362 0.000110853453450368 0.000260333022833222 0.000393159254147123 0.000358489161334205 0.000127684927175484 0.000358281261718949 0.000997462531962681 0.00183907317188969 0.00290861440848624 0.00418607084336265 0.0056682356062234 0.00734979613573497 0.00921264559737577 0.0112608943040563 0.0134703385977463 0.0158475919151501 0.0183647571938214 0.0210247746039475 0.0237959860743679 0.0266736011967095 0.029621711611324 0.0326259758926584 0.0356461083578239 0.038658230013658 0.0416181647348768 0.0444938824232638 0.0472384943548375 0.0498142152650253 0.0521733158748675 0.0542754155201028 0.0560744539276853 0.057531308988369 0.0586046165821808 0.0592614701207937 0.0594683297042874 0.0592064786661675 0.0584506054223844 0.0571920314962983 0.0554283691247651 0.0531703196332868 0.0504391329136284 0.0472691121282107 0.0437062121573519 0.0398094365483478 0.0356480897298237 0.0313038919896913 0.0268647773741492 0.0224301834773471 0.0180990852498183 0.0139834467374518 0.0101912164701045 0.00686871786523481 0.00423734062296527 0.00285897076017766 0.00314585002889573 0.00404039662347526 0.00475731063187543 0.00507642734569216 0.00501692605305173 0.00459369292832247 0.00393274418871653 0.00308382038543658 0.00219133774099148 0.00128892661373542 0.000417638950604324 0.000337466421667538 0.000388748410092869 0.000149015353517045 0.000583549567475136 0.00145148598587261 0.00261017299350733 0.00400643186171096 0.00567074412615601 0.00758431785405113 0.00974805308588413 0.0121571136486787 0.0147938159289436 0.017659670673971 0.0207269164566379 0.0239966670990616 0.0274343930992312 0.0310351734381603 0.0347584897216788 0.0385899201591901 0.0424832371503937 0.0464133947602149 0.0503291359692511 0.0541956279868931 0.057957949143859 0.0615737675251497 0.0649865755209763 0.0681498220982959 0.0710081218833659 0.0735146237818291 0.0756182501025605 0.0772762162886694 0.0784451355921776 0.0790912450805755 0.0791814652173576 0.0786977703075517 0.0776165103025379 0.0759343794737089 0.0736546323715056 0.0707946013745269 0.0673825086681383 0.0634596604532181 0.0590792104909812 0.0543070190284685 0.0492194478515171 0.0439050422160495 0.0384589123583694 0.0329879147397346 0.0275984283911107 0.0224095051786307 0.017530613563663 0.0130920467528503 0.00921791821563269 0.00611311991873308 0.0041112996127516 0.00361691208972447 0.00411552688978462 0.00469181979400079 0.00499879230960544 0.00492970720329294 0.00456916939468566 0.00392534961639959 0.00310308329362117 0.00206223147721763 0.000794109663242615 0.000354810016299796 0.000268044377939234 0.000547087982457937 0.00162392344215988 0.00303350156151945 0.00478618217218504 0.00681312821200647 0.00913989553420741 0.0117448618299236 0.0146301624404212 0.0177910149731822 0.0212093414480331 0.0248843454022966 0.0287841932532449 0.0329045250643734 0.0372036529498016 0.0416687805896725 0.04625037009873 0.0509248492605495 0.0556363381048958 0.06035049206643 0.0650068694549596 0.0695622110659243 0.0739538217690243 0.0781326620781148 0.082036611529777 0.0856147241394416 0.0888086758594259 0.0915697746198937 0.0938469451862141 0.0955978122877427 0.0967820351568064 0.0973669922260909 0.0973260683203459 0.0966373399668316 0.0952898898369796 0.0932825941013158 0.0906254723154599 0.0873391142650733 0.083455670332892 0.0790180257965953 0.0740804676150445 0.0687079230750159 0.0629753181111188 0.0569681369403089 0.0507784308423396 0.0445091766018805 0.0382634005573396 0.0321565484627354 0.0262934225220253 0.0207954768279447 0.0157597509334485 0.0113153862964083 0.00757489721106592 0.00479120905994024 0.00340713589428684 0.0035411000923997 0.0042251599342021 0.004724992850639 0.00490129347795121 0.00465522603059937 0.00402414568769921 0.00289267929989555 0.00121370352671746 0.000267287225435308 0.000331988385605038 0.00141328343060399 0.00308484156942416 0.00512280131726528 0.00754045789862586 0.0102575234187893 0.0132939266425078 0.0166256864160115 0.0202540607108329 0.0241742239172993 0.0283662856934829 0.0328271255365353 0.0375200087100566 0.042435186255545 0.0475235003762815 0.0527647403049016 0.0581007669868281 0.0635000445643436 0.068898412762786 0.0742543478600054 0.079500610421955 0.0845885572126414 0.0894509747867461 0.0940358729639962 0.0982793069993444 0.102130059206528 0.105530704198643 0.108434788770807 0.110794515545082 0.112571610232816 0.113730730110095 0.114243884155985 0.114090573915573 0.113251675100274 0.111724452809306 0.109511258891662 0.106625624118755 0.103089029021641 0.0989330978087168 0.0941976381275192 0.0889322277869028 0.0831945694962238 0.0770511404448164 0.0705770241401755 0.0638535672047037 0.0569724159125469 0.0500262955322113 0.0431216698874349 0.0363565649428696 0.0298481148393878 0.0236894868678146 0.0180010216031065 0.0128602708188303 0.00839646447510864 0.00473619501448814 0.00244994901871416 0.00271370420792761 0.00395663653885774 0.00488198207133955 0.00517866435109718 0.0048261631498483 0.00365517333553151 0.00160059549624298 7.65486735105761e-05 0.000941499553295722 0.00264149095798805 0.00497055367076708 0.00769933057911651 0.0108314538043814 0.0142764723134938 0.0180492421369236 0.0221238438036969 0.0264995627517956 0.0311711890139997 0.0361157897857991 0.0413277434208965 0.0467647420019035 0.0524119822479227 0.0582129529317435 0.0641410607045284 0.0701305778864724 0.076143828602151 0.0821102759419796 0.0879837848041976 0.0936929624925821 0.0991868886530007 0.104396932018513 0.109271465722406 0.113747905178001 0.117777877631436 0.121307727311066 0.124295751701268 0.126699623980373 0.128486791305001 0.129628122745836 0.130101223531332 0.129891534217802 0.128985493694091 0.127384211064721 0.125091929577944 0.122122756403702 0.118495574197198 0.114237874806026 0.109382104775602 0.103968954167517 0.0980442429449523 0.0916615894807381 0.0848809884828722 0.0777689267791857 0.0704016053897092 0.062858412305462 0.0552346406755736 0.0476214525828081 0.0401348845268641 0.0328724482238565 0.0259672124371465 0.0195099448085867 0.0136394661097418 0.00842564086392104 0.00402204484861792 0.00100260397837568 0.00273838140730957 0.00457908746897605 0.00550777404803095 0.00549334461322412 0.00433650971406271 0.00196017076996661 0.000238886779900584 0.0018921188916943 0.00428207627365876 0.00733492585552629 0.0108022785152773 0.0146790199712395 0.0188693834789419 0.0233839921243361 0.0281969029799138 0.0333045124334581 0.038701470549244 0.0443606061455874 0.050273819723904 0.0563926840139849 0.0626978978766352 0.0691260234913838 0.0756454361791889 0.0821842190045989 0.0887006805428543 0.0951200987103575 0.101394426611187 0.10745080500049 0.113239005566845 0.118691794187134 0.123760796935801 0.128387341624859 0.132528384976611 0.136135962241341 0.139174971132205 0.141609555230202 0.143414038511112 0.144565460210641 0.145047587346779 0.144850901841903 0.143966693939253 0.142397871185589 0.14014854055167 0.137230250940401 0.133656805366834 0.129448336624053 0.124627059217055 0.119221578406029 0.113262776393142 0.106788319096353 0.0998400983452117 0.0924669211493431 0.0847268628443975 0.0766838177832075 0.0684200148033164 0.0600190894495928 0.0515957324277799 0.0432544916591169 0.0351451528401712 0.027384002266211 0.0201461509351316 0.0135366600938494 0.00773561085675827 0.00281403042221711 0.00113254787806388 0.00393109944915481 0.00553787028521774 0.00592168223039102 0.00485348367086256 0.00224772209832584 0.00067855422062576 0.00315611823437969 0.00634586112452245 0.0101862944628725 0.0144268169908035 0.0190614212893751 0.0239958215974071 0.0292393456061926 0.0347683151369787 0.0405763573183075 0.0466582937336559 0.0529820700928341 0.059537219651533 0.0662690529757373 0.0731545318669576 0.0801240862053611 0.0871426490202358 0.0941337778112708 0.101054005692689 0.10782666133435 0.114404350743205 0.120715182712314 0.126712144947331 0.132331663922488 0.137530760917689 0.142256453391219 0.146472519402238 0.150137754272976 0.153224351480174 0.155703173874005 0.157555366869548 0.158763517001362 0.159317046560681 0.159209776488328 0.158437252045158 0.157001519966419 0.154904893775084 0.152154123471765 0.148755958646288 0.144721274423502 0.140060100088104 0.134787247918093 0.128916793588666 0.12246885062055 0.115465376830167 0.107935931428355 0.0999186068615404 0.0914601785474338 0.082627952912271 0.0734963512101068 0.0641771987309415 0.0547807752624006 0.0454733517295857 0.0363977806587147 0.0277687199461408 0.0197398050512351 0.0125524873737248 0.00636111497010399 0.00176009369601235 0.0030298282454517 0.00525916533096647 0.0060993165668852 0.00520875040691315 0.00247816736769827 0.00124956309430305 0.00474217837412472 0.00885164519884743 0.0135433540657919 0.0185842311663739 0.0239774595203383 0.029639893699746 0.0355834487961481 0.041790400803691 0.048252153632335 0.0549646946931489 0.0618907221130041 0.0690178870262147 0.0762853395840145 0.0836672942009153 0.091089029711268 0.0985137189650963 0.105862110535797 0.113091115010257 0.120124203672847 0.126916905286972 0.133400375175826 0.139532857697097 0.145256171635757 0.150534272860842 0.155321012434635 0.159587868341407 0.163300821382131 0.166439557202586 0.168981346275021 0.170913788101981 0.172224035482029 0.172906435231516 0.172956558773212 0.172373326389888 0.17115649175175 0.169305545624664 0.166821180843433 0.163702186957657 0.159949168560291 0.155559093500119 0.150532069741466 0.144864371243391 0.138557532634576 0.131612261501658 0.124037470109812 0.115849360181016 0.107075555247308 0.0977656740269522 0.0879821559658946 0.0778303796134293 0.0674232387414947 0.0569400071252768 0.0465476171701072 0.0364989952628571 0.0269946023769093 0.0183370653569475 0.0107383560497135 0.00465567166909359 0.0023075097509723 0.00462266418445446 0.00596258665093635 0.00535588082025522 0.00262789694249088 0.00195318673306914 0.00664925422533333 0.011797644612475 0.0174005311285655 0.0232610115292885 0.0294029913856556 0.0357651641472541 0.0423673933997712 0.0492021273170919 0.056260005610996 0.063539421294707 0.0709980342890206 0.078622255937547 0.0863455381556155 0.0941404152505698 0.101928156733424 0.109671794074434 0.117290920437224 0.124744723139938 0.131958615074035 0.138892869201556 0.145483276513522 0.151694778219111 0.157475705220326 0.162797811997085 0.167622300179643 0.171928565960522 0.175689688806558 0.178892474081258 0.181520019951053 0.183565590472668 0.185019975237228 0.185881544334064 0.186146361319639 0.185816214126115 0.18488784243245 0.1833575512626 0.181219723797356 0.178464958696543 0.175083532755258 0.171059129636556 0.166377039894957 0.161015299541145 0.154956416814411 0.148178881860988 0.140669812658479 0.13242162085579 0.123440488877449 0.113755139852503 0.103412293646789 0.0925063440061446 0.081147975862217 0.069524439039334 0.0578225169520336 0.0463296323490619 0.035291629844725 0.0250698256952429 0.015930079473952 0.00832125307642484 0.00311006887506738 0.00370346560013377 0.00550770959455419 0.00530030980126889 0.00271039107458226 0.002785953254747 0.00886934554781007 0.0151733319047661 0.0217443398199653 0.0284389240783078 0.0353128680050568 0.0423382367779014 0.0495486228914673 0.0569517070958279 0.0645392281185125 0.072313782058647 0.0802285167929019 0.0882695631131423 0.0963653231975282 0.104487808479546 0.112555424768848 0.120532547462714 0.128339073017807 0.135938035894136 0.143258226598376 0.150266018199796 0.156902963916172 0.163141621927092 0.168937487124762 0.174270496434972 0.179109350839347 0.183441235188426 0.187246067120594 0.190517254871123 0.193243230925837 0.195422213352806 0.197048095445036 0.19812262726916 0.198641869184408 0.198610397493941 0.198022028230137 0.196870242686935 0.195143705378878 0.192825227562383 0.189895340933214 0.186324710692818 0.182084130943941 0.177133275392993 0.171435393843482 0.164945885179135 0.157628883076619 0.14945090288209 0.140394039378503 0.130462277655935 0.119682129271129 0.108131291562608 0.0959121533987767 0.0832133712250047 0.0702355068745515 0.0572958493777476 0.0446826071706603 0.0328161869535603 0.0220206830835604 0.0127807856951851 0.0055863758830525 0.00285588163771037 0.00471314865178121 0.00501587560622195 0.00271322984189902 0.00374677416405699 0.011393422467323 0.0189625472184023 0.0265528652565061 0.0340905451124237 0.0416740018628691 0.049319971813465 0.0570820010947716 0.0649882517958262 0.0730339892910245 0.0812280180457921 0.08951992473293 0.0978966206734352 0.106282310448937 0.114649572274124 0.122915055752443 0.131045711570995 0.13896294532319 0.14663480090137 0.153994478634046 0.161015314074892 0.167645280492913 0.173864985359984 0.179637300941916 0.184950347821499 0.189780159051386 0.194121385503526 0.197960410643373 0.201296755392467 0.204123859986745 0.206444366892544 0.208255268431554 0.209561197808001 0.210358730110375 0.210654906141821 0.21044179042214 0.209710709304112 0.208445864570516 0.206623053924512 0.204214056103277 0.201177136807459 0.197469216027274 0.193031780987247 0.187808830744685 0.181732019761142 0.174741455654174 0.16677574405296 0.157790195304861 0.147760072767919 0.136686760935099 0.124624959868545 0.111661683787411 0.0979790907389127 0.0837840225380293 0.0694169867991949 0.0552047137787911 0.0416263276635709 0.0290698894700664 0.0180824788217664 0.00908564817846491 0.00323056951577478 0.00361997305483448 0.00450500497658734 0.00264434078068884 0.00482428998335258 0.014197301079695 0.0231327709361403 0.0317884714300495 0.0401748009682877 0.0484424449285411 0.056663570148829 0.0649176552411172 0.0732587624868235 0.0816882934581317 0.0902235705386629 0.0988117870818981 0.107441862716587 0.116034724627661 0.124564553086231 0.132947218161775 0.141153219850629 0.149106383726057 0.156780538208909 0.164113947348063 0.171087350678042 0.17765543873388 0.183806943936358 0.189512091688606 0.194766976750308 0.199554774998571 0.203877264690265 0.207727169491339 0.211109811303112 0.214023815638031 0.216476006412363 0.218467171584834 0.220004522706553 0.221086463979596 0.221722813026407 0.221904965295176 0.22162327379922 0.220859285645999 0.219582679321956 0.217757860399779 0.215331416926415 0.212247304233868 0.20842911918786 0.203801844331567 0.198272867021263 0.191757394998392 0.184164197250628 0.175419162151078 0.165464762254231 0.154272128335409 0.141866177508859 0.128310657944443 0.113772169163043 0.0984545217213913 0.0827130367769872 0.0669066521251546 0.0515716490291504 0.0371642116680115 0.02431286402332 0.0134702383044052 0.00539076160944412 0.00245326657665767 0.00375184614282463 0.00249559877890313 0.0060132211833441 0.0172617184565347 0.0276540443333826 0.0374146393670118 0.0466514989264095 0.055576148061502 0.0643259077612455 0.0730118591815791 0.0817191413234187 0.0904580888579496 0.0992569007963507 0.108061766560173 0.116864842190395 0.125584746370858 0.134198134598991 0.14262092207191 0.150827821591235 0.158745695525813 0.166354545851378 0.173598009271467 0.180464303516296 0.186914831619045 0.192946275022141 0.19853600484446 0.203687830016361 0.208391855059145 0.212656849982011 0.216481884188352 0.219878213242896 0.222850086197922 0.225408837838817 0.227560147696209 0.229313782015848 0.230672293677719 0.23164608434851 0.232229958118069 0.232414200563967 0.232179463047594 0.231490426245342 0.230305437454777 0.228560429464438 0.226187367176816 0.223092564518311 0.219182424766778 0.214339889741956 0.20845470346385 0.201404238429127 0.193082649473242 0.183395839263082 0.172279706572849 0.159722535095247 0.14575652864991 0.130522726799104 0.114211198312983 0.0971813908488623 0.0798156605882908 0.0627029942417661 0.0463691645479066 0.0315378878054161 0.0187361881186814 0.00869670217703703 0.00233827468332719 0.00275948950393933 0.00226847603622255 0.00729618420931713 0.0205500697639881 0.0324781652152624 0.0433773132374086 0.0534644176386833 0.0630189937316121 0.0722519807754343 0.0813110753879972 0.0903173404133524 0.0992927839417233 0.108278889059981 0.117222306289046 0.126119677331068 0.134888246992913 0.143507883360453 0.151895188000206 0.160029483003027 0.167841010706363 0.175316022475794 0.182403564549564 0.18909914253302 0.195370689917889 0.201222522659074 0.206638944804518 0.211631246518501 0.216196456687853 0.220350390367116 0.224098880902903 0.227459569876085 0.230443328374354 0.233066679271326 0.235342113200711 0.237281556053008 0.238896279169106 0.240189085320496 0.241169271208229 0.241825039395704 0.242138890151153 0.242071105702784 0.24157560883931 0.240578638142373 0.239001415658034 0.236733697970277 0.233664074468074 0.229651132832388 0.224558990256774 0.218232446760282 0.210532054232848 0.201323757437424 0.190503584858645 0.17801648389196 0.163854697082017 0.148123094353346 0.130986006956268 0.112794239301159 0.0939419205210056 0.0750626397569446 0.0567500296626684 0.0398311861933488 0.0249334596503031 0.0128795762622497 0.00421693115290818 0.00158124636943046 0.00195459202418851 0.00866324318375328 0.0240333560555141 0.0375634147745674 0.0496283817185803 0.0605634584027465 0.0707218404455083 0.0803950770101804 0.0897717994806576 0.0990132963472824 0.108155901723918 0.117256675897548 0.126264242006588 0.135180891433062 0.143923375816053 0.152475326022354 0.160754492838038 0.168744938116047 0.176380390469599 0.18365315808757 0.190517523296661 0.19697590043063 0.203002457219809 0.208608787054777 0.213785927026442 0.218552558649736 0.222912746885456 0.2268897350255 0.230496674478145 0.233758535094179 0.236693772185103 0.239325552369548 0.241674219373674 0.243755824175958